   2   2   0   0
  0.5000000E+03  0.1000000E-08  0.1000000E-08  0.1000000E-08  0.5000000E-15
   1.0000000000000000E-004
  CAR 
 CO                                      
      2.57413554    -30.63048402  301     -8.88145820      1.00000000
    -30.630  0.0000E+00  0.0000E+00
    -30.520  0.0000E+00  0.0000E+00
    -30.409  0.0000E+00  0.0000E+00
    -30.298  0.0000E+00  0.0000E+00
    -30.188  0.0000E+00  0.0000E+00
    -30.077  0.0000E+00  0.0000E+00
    -29.966  0.0000E+00  0.0000E+00
    -29.856  0.0000E+00  0.0000E+00
    -29.745  0.0000E+00  0.0000E+00
    -29.634  0.0000E+00  0.0000E+00
    -29.524  0.0000E+00  0.0000E+00
    -29.413  0.0000E+00  0.0000E+00
    -29.302  0.0000E+00  0.0000E+00
    -29.192  0.0000E+00  0.0000E+00
    -29.081  0.0000E+00  0.2000E-01
    -28.970  0.0000E+00  0.2000E-01
    -28.860  0.0000E+00  0.2000E-01
    -28.749  0.0000E+00  0.2000E-01
    -28.638  0.0000E+00  0.2000E-01
    -28.528  0.0000E+00  0.2000E-01
    -28.417  0.0000E+00  0.2000E-01
    -28.306  0.0000E+00  0.2000E-01
    -28.195  0.0000E+00  0.2000E-01
    -28.085  0.0000E+00  0.2000E-01
    -27.974  0.0000E+00  0.2000E-01
    -27.863  0.0000E+00  0.2000E-01
    -27.753  0.0000E+00  0.2000E-01
    -27.642  0.0000E+00  0.2000E-01
    -27.531  0.0000E+00  0.2000E-01
    -27.421  0.0000E+00  0.2000E-01
    -27.310  0.0000E+00  0.2000E-01
    -27.199  0.0000E+00  0.2000E-01
    -27.089  0.0000E+00  0.2000E-01
    -26.978  0.0000E+00  0.2000E-01
    -26.867  0.0000E+00  0.2000E-01
    -26.757  0.0000E+00  0.2000E-01
    -26.646  0.0000E+00  0.2000E-01
    -26.535  0.0000E+00  0.2000E-01
    -26.425  0.0000E+00  0.2000E-01
    -26.314  0.0000E+00  0.2000E-01
    -26.203  0.0000E+00  0.2000E-01
    -26.093  0.0000E+00  0.2000E-01
    -25.982  0.0000E+00  0.2000E-01
    -25.871  0.0000E+00  0.2000E-01
    -25.760  0.0000E+00  0.2000E-01
    -25.650  0.0000E+00  0.2000E-01
    -25.539  0.0000E+00  0.2000E-01
    -25.428  0.0000E+00  0.2000E-01
    -25.318  0.0000E+00  0.2000E-01
    -25.207  0.0000E+00  0.2000E-01
    -25.096  0.0000E+00  0.2000E-01
    -24.986  0.0000E+00  0.2000E-01
    -24.875  0.0000E+00  0.2000E-01
    -24.764  0.0000E+00  0.2000E-01
    -24.654  0.0000E+00  0.2000E-01
    -24.543  0.0000E+00  0.2000E-01
    -24.432  0.0000E+00  0.2000E-01
    -24.322  0.0000E+00  0.2000E-01
    -24.211  0.0000E+00  0.2000E-01
    -24.100  0.0000E+00  0.2000E-01
    -23.990  0.0000E+00  0.2000E-01
    -23.879  0.0000E+00  0.2000E-01
    -23.768  0.0000E+00  0.2000E-01
    -23.658  0.0000E+00  0.2000E-01
    -23.547  0.0000E+00  0.2000E-01
    -23.436  0.0000E+00  0.2000E-01
    -23.325  0.0000E+00  0.2000E-01
    -23.215  0.0000E+00  0.2000E-01
    -23.104  0.0000E+00  0.2000E-01
    -22.993  0.0000E+00  0.2000E-01
    -22.883  0.0000E+00  0.2000E-01
    -22.772  0.0000E+00  0.2000E-01
    -22.661  0.0000E+00  0.2000E-01
    -22.551  0.0000E+00  0.2000E-01
    -22.440  0.0000E+00  0.2000E-01
    -22.329  0.0000E+00  0.2000E-01
    -22.219  0.0000E+00  0.2000E-01
    -22.108  0.0000E+00  0.2000E-01
    -21.997  0.0000E+00  0.2000E-01
    -21.887  0.0000E+00  0.2000E-01
    -21.776  0.0000E+00  0.2000E-01
    -21.665  0.0000E+00  0.2000E-01
    -21.555  0.0000E+00  0.2000E-01
    -21.444  0.0000E+00  0.2000E-01
    -21.333  0.0000E+00  0.2000E-01
    -21.223  0.0000E+00  0.2000E-01
    -21.112  0.0000E+00  0.2000E-01
    -21.001  0.0000E+00  0.2000E-01
    -20.890  0.0000E+00  0.2000E-01
    -20.780  0.0000E+00  0.2000E-01
    -20.669  0.0000E+00  0.2000E-01
    -20.558  0.0000E+00  0.2000E-01
    -20.448  0.0000E+00  0.2000E-01
    -20.337  0.0000E+00  0.2000E-01
    -20.226  0.0000E+00  0.2000E-01
    -20.116  0.0000E+00  0.2000E-01
    -20.005  0.0000E+00  0.2000E-01
    -19.894  0.0000E+00  0.2000E-01
    -19.784  0.0000E+00  0.2000E-01
    -19.673  0.0000E+00  0.2000E-01
    -19.562  0.0000E+00  0.2000E-01
    -19.452  0.0000E+00  0.2000E-01
    -19.341  0.0000E+00  0.2000E-01
    -19.230  0.0000E+00  0.2000E-01
    -19.120  0.0000E+00  0.2000E-01
    -19.009  0.0000E+00  0.2000E-01
    -18.898  0.0000E+00  0.2000E-01
    -18.788  0.0000E+00  0.2000E-01
    -18.677  0.0000E+00  0.2000E-01
    -18.566  0.0000E+00  0.2000E-01
    -18.455  0.0000E+00  0.2000E-01
    -18.345  0.0000E+00  0.2000E-01
    -18.234  0.0000E+00  0.2000E-01
    -18.123  0.0000E+00  0.2000E-01
    -18.013  0.0000E+00  0.2000E-01
    -17.902  0.0000E+00  0.2000E-01
    -17.791  0.0000E+00  0.2000E-01
    -17.681  0.0000E+00  0.2000E-01
    -17.570  0.0000E+00  0.2000E-01
    -17.459  0.0000E+00  0.2000E-01
    -17.349  0.0000E+00  0.2000E-01
    -17.238  0.0000E+00  0.2000E-01
    -17.127  0.0000E+00  0.2000E-01
    -17.017  0.0000E+00  0.2000E-01
    -16.906  0.0000E+00  0.2000E-01
    -16.795  0.0000E+00  0.2000E-01
    -16.685  0.0000E+00  0.2000E-01
    -16.574  0.0000E+00  0.2000E-01
    -16.463  0.0000E+00  0.2000E-01
    -16.352  0.0000E+00  0.2000E-01
    -16.242  0.0000E+00  0.2000E-01
    -16.131  0.0000E+00  0.2000E-01
    -16.020  0.0000E+00  0.2000E-01
    -15.910  0.0000E+00  0.2000E-01
    -15.799  0.0000E+00  0.2000E-01
    -15.688  0.0000E+00  0.2000E-01
    -15.578  0.0000E+00  0.2000E-01
    -15.467  0.0000E+00  0.2000E-01
    -15.356  0.0000E+00  0.2000E-01
    -15.246  0.0000E+00  0.2000E-01
    -15.135  0.0000E+00  0.2000E-01
    -15.024  0.0000E+00  0.2000E-01
    -14.914  0.0000E+00  0.2000E-01
    -14.803  0.0000E+00  0.2000E-01
    -14.692  0.0000E+00  0.2000E-01
    -14.582  0.0000E+00  0.2000E-01
    -14.471  0.0000E+00  0.2000E-01
    -14.360  0.0000E+00  0.2000E-01
    -14.250  0.0000E+00  0.2000E-01
    -14.139  0.0000E+00  0.2000E-01
    -14.028  0.0000E+00  0.2000E-01
    -13.917  0.1807E+00  0.4000E-01
    -13.807  0.0000E+00  0.4000E-01
    -13.696  0.0000E+00  0.4000E-01
    -13.585  0.0000E+00  0.4000E-01
    -13.475  0.0000E+00  0.4000E-01
    -13.364  0.0000E+00  0.4000E-01
    -13.253  0.0000E+00  0.4000E-01
    -13.143  0.0000E+00  0.4000E-01
    -13.032  0.0000E+00  0.4000E-01
    -12.921  0.0000E+00  0.4000E-01
    -12.811  0.0000E+00  0.4000E-01
    -12.700  0.0000E+00  0.4000E-01
    -12.589  0.0000E+00  0.4000E-01
    -12.479  0.0000E+00  0.4000E-01
    -12.368  0.0000E+00  0.4000E-01
    -12.257  0.0000E+00  0.4000E-01
    -12.147  0.0000E+00  0.4000E-01
    -12.036  0.0000E+00  0.4000E-01
    -11.925  0.0000E+00  0.4000E-01
    -11.815  0.0000E+00  0.4000E-01
    -11.704  0.0000E+00  0.4000E-01
    -11.593  0.0000E+00  0.8000E-01
    -11.482  0.0000E+00  0.8000E-01
    -11.372  0.0000E+00  0.8000E-01
    -11.261  0.0000E+00  0.8000E-01
    -11.150  0.0000E+00  0.8000E-01
    -11.040  0.0000E+00  0.8000E-01
    -10.929  0.0000E+00  0.8000E-01
    -10.818  0.0000E+00  0.8000E-01
    -10.708  0.0000E+00  0.8000E-01
    -10.597  0.0000E+00  0.8000E-01
    -10.486  0.0000E+00  0.8000E-01
    -10.376  0.0000E+00  0.8000E-01
    -10.265  0.0000E+00  0.8000E-01
    -10.154  0.0000E+00  0.8000E-01
    -10.044  0.0000E+00  0.8000E-01
     -9.933  0.0000E+00  0.8000E-01
     -9.822  0.0000E+00  0.8000E-01
     -9.712  0.0000E+00  0.8000E-01
     -9.601  0.0000E+00  0.8000E-01
     -9.490  0.0000E+00  0.8000E-01
     -9.380  0.0000E+00  0.8000E-01
     -9.269  0.0000E+00  0.8000E-01
     -9.158  0.0000E+00  0.8000E-01
     -9.047  0.0000E+00  0.8000E-01
     -8.937  0.0000E+00  0.8000E-01
     -8.826  0.0000E+00  0.1000E+00
     -8.715  0.0000E+00  0.1000E+00
     -8.605  0.0000E+00  0.1000E+00
     -8.494  0.0000E+00  0.1000E+00
     -8.383  0.0000E+00  0.1000E+00
     -8.273  0.0000E+00  0.1000E+00
     -8.162  0.0000E+00  0.1000E+00
     -8.051  0.0000E+00  0.1000E+00
     -7.941  0.0000E+00  0.1000E+00
     -7.830  0.0000E+00  0.1000E+00
     -7.719  0.0000E+00  0.1000E+00
     -7.609  0.0000E+00  0.1000E+00
     -7.498  0.0000E+00  0.1000E+00
     -7.387  0.0000E+00  0.1000E+00
     -7.277  0.0000E+00  0.1000E+00
     -7.166  0.0000E+00  0.1000E+00
     -7.055  0.0000E+00  0.1000E+00
     -6.945  0.0000E+00  0.1000E+00
     -6.834  0.0000E+00  0.1000E+00
     -6.723  0.0000E+00  0.1000E+00
     -6.612  0.0000E+00  0.1000E+00
     -6.502  0.0000E+00  0.1000E+00
     -6.391  0.0000E+00  0.1000E+00
     -6.280  0.0000E+00  0.1000E+00
     -6.170  0.0000E+00  0.1000E+00
     -6.059  0.0000E+00  0.1000E+00
     -5.948  0.0000E+00  0.1000E+00
     -5.838  0.0000E+00  0.1000E+00
     -5.727  0.0000E+00  0.1000E+00
     -5.616  0.0000E+00  0.1000E+00
     -5.506  0.0000E+00  0.1000E+00
     -5.395  0.0000E+00  0.1000E+00
     -5.284  0.0000E+00  0.1000E+00
     -5.174  0.0000E+00  0.1000E+00
     -5.063  0.0000E+00  0.1000E+00
     -4.952  0.0000E+00  0.1000E+00
     -4.842  0.0000E+00  0.1000E+00
     -4.731  0.0000E+00  0.1000E+00
     -4.620  0.0000E+00  0.1000E+00
     -4.510  0.0000E+00  0.1000E+00
     -4.399  0.0000E+00  0.1000E+00
     -4.288  0.0000E+00  0.1000E+00
     -4.177  0.0000E+00  0.1000E+00
     -4.067  0.0000E+00  0.1000E+00
     -3.956  0.0000E+00  0.1000E+00
     -3.845  0.0000E+00  0.1000E+00
     -3.735  0.0000E+00  0.1000E+00
     -3.624  0.0000E+00  0.1000E+00
     -3.513  0.0000E+00  0.1000E+00
     -3.403  0.0000E+00  0.1000E+00
     -3.292  0.0000E+00  0.1000E+00
     -3.181  0.0000E+00  0.1000E+00
     -3.071  0.0000E+00  0.1000E+00
     -2.960  0.0000E+00  0.1000E+00
     -2.849  0.0000E+00  0.1000E+00
     -2.739  0.0000E+00  0.1000E+00
     -2.628  0.0000E+00  0.1000E+00
     -2.517  0.0000E+00  0.1000E+00
     -2.407  0.0000E+00  0.1000E+00
     -2.296  0.0000E+00  0.1000E+00
     -2.185  0.0000E+00  0.1000E+00
     -2.075  0.0000E+00  0.1000E+00
     -1.964  0.0000E+00  0.1400E+00
     -1.853  0.0000E+00  0.1400E+00
     -1.742  0.0000E+00  0.1400E+00
     -1.632  0.0000E+00  0.1400E+00
     -1.521  0.0000E+00  0.1400E+00
     -1.410  0.0000E+00  0.1400E+00
     -1.300  0.0000E+00  0.1400E+00
     -1.189  0.0000E+00  0.1400E+00
     -1.078  0.0000E+00  0.1400E+00
     -0.968  0.0000E+00  0.1400E+00
     -0.857  0.0000E+00  0.1400E+00
     -0.746  0.0000E+00  0.1400E+00
     -0.636  0.0000E+00  0.1400E+00
     -0.525  0.0000E+00  0.1400E+00
     -0.414  0.0000E+00  0.1400E+00
     -0.304  0.0000E+00  0.1400E+00
     -0.193  0.0000E+00  0.1600E+00
     -0.082  0.0000E+00  0.1600E+00
      0.028  0.0000E+00  0.1600E+00
      0.139  0.0000E+00  0.1600E+00
      0.250  0.0000E+00  0.1600E+00
      0.360  0.0000E+00  0.1600E+00
      0.471  0.0000E+00  0.1600E+00
      0.582  0.0000E+00  0.1600E+00
      0.693  0.0000E+00  0.1600E+00
      0.803  0.0000E+00  0.1600E+00
      0.914  0.0000E+00  0.1600E+00
      1.025  0.0000E+00  0.1600E+00
      1.135  0.0000E+00  0.1800E+00
      1.246  0.0000E+00  0.1800E+00
      1.357  0.0000E+00  0.1800E+00
      1.467  0.0000E+00  0.1800E+00
      1.578  0.0000E+00  0.1800E+00
      1.689  0.0000E+00  0.1800E+00
      1.799  0.0000E+00  0.1800E+00
      1.910  0.0000E+00  0.1800E+00
      2.021  0.0000E+00  0.1800E+00
      2.131  0.0000E+00  0.1800E+00
      2.242  0.0000E+00  0.1800E+00
      2.353  0.0000E+00  0.1800E+00
      2.463  0.0000E+00  0.1800E+00
      2.574  0.0000E+00  0.1800E+00
