    2    2  100    1
  0.5000000E+03  0.1000000E-08  0.1000000E-08  0.1000000E-08  0.5000000E-15
   1.0000000000000000E-004
  CAR 
 CO                                      
     10      1      9

  0.1262379E-14  0.1262379E-14  0.1262379E-14  0.1000000E+01
      1        -29.121183   1.000000
      2        -13.920582   1.000000
      3        -11.609541   1.000000
      4        -11.608827   1.000000
      5         -8.919019   1.000000
      6         -2.026726   0.000000
      7         -2.025257   0.000000
      8         -0.229778   0.000000
      9          1.064835   0.000000
