       N       E                     dE             d eps       ncg     rms          rms(c)
DAV:   1     0.870874364656E+02    0.87087E+02   -0.23410E+03    26   0.458E+02
DAV:   2     0.808893393211E+00   -0.86279E+02   -0.85986E+02    34   0.139E+02
DAV:   3    -0.152389990042E+02   -0.16048E+02   -0.16045E+02    19   0.844E+01
DAV:   4    -0.156437381565E+02   -0.40474E+00   -0.40468E+00    34   0.144E+01
DAV:   5    -0.156439432695E+02   -0.20511E-03   -0.20511E-03    20   0.297E-01    0.749E+00
DAV:   6    -0.148509297410E+02    0.79301E+00   -0.31477E+00    18   0.135E+01    0.396E+00
DAV:   7    -0.146967732489E+02    0.15416E+00   -0.63809E-01    27   0.528E+00    0.193E+00
DAV:   8    -0.146675198314E+02    0.29253E-01   -0.14362E-01    28   0.317E+00    0.580E-01
DAV:   9    -0.146670238777E+02    0.49595E-03   -0.98268E-03    20   0.852E-01    0.968E-02
DAV:  10    -0.146678394545E+02   -0.81558E-03   -0.79838E-04    20   0.199E-01    0.409E-02
DAV:  11    -0.146700703698E+02   -0.22309E-02   -0.81250E-04    18   0.151E-01    0.230E-02
DAV:  12    -0.146705943479E+02   -0.52398E-03   -0.58669E-05    20   0.453E-02    0.127E-02
DAV:  13    -0.146715462580E+02   -0.95191E-03   -0.18036E-04    18   0.609E-02    0.823E-03
DAV:  14    -0.146718058168E+02   -0.25956E-03   -0.21400E-05    20   0.224E-02    0.416E-03
DAV:  15    -0.146720611666E+02   -0.25535E-03   -0.22827E-05    20   0.231E-02    0.358E-03
DAV:  16    -0.146721146427E+02   -0.53476E-04   -0.35418E-06    20   0.114E-02    0.160E-03
DAV:  17    -0.146721425351E+02   -0.27892E-04   -0.15441E-06    18   0.682E-03    0.892E-04
DAV:  18    -0.146721477924E+02   -0.52573E-05   -0.17160E-07    20   0.247E-03
   1 F= -.14672148E+02 E0= -.14672148E+02  d E =-.146721E+02
       N       E                     dE             d eps       ncg     rms          rms(c)
DAV:   1    -0.131351508275E+02    0.15370E+01   -0.13573E+02    20   0.112E+02    0.533E+00
DAV:   2    -0.130738578345E+02    0.61293E-01   -0.70525E+00    26   0.166E+01    0.417E+00
DAV:   3    -0.129346101002E+02    0.13925E+00   -0.18276E+00    20   0.806E+00    0.234E+00
DAV:   4    -0.129090827548E+02    0.25527E-01   -0.22175E-01    26   0.382E+00    0.782E-01
DAV:   5    -0.129099189848E+02   -0.83623E-03   -0.39213E-02    20   0.117E+00    0.255E-01
DAV:   6    -0.129112960193E+02   -0.13770E-02   -0.35076E-03    20   0.434E-01    0.489E-02
DAV:   7    -0.129120760511E+02   -0.78003E-03   -0.28690E-04    20   0.138E-01    0.235E-02
DAV:   8    -0.129135568735E+02   -0.14808E-02   -0.33659E-04    19   0.115E-01    0.160E-02
DAV:   9    -0.129142551004E+02   -0.69823E-03   -0.13296E-04    20   0.607E-02    0.105E-02
DAV:  10    -0.129146415157E+02   -0.38642E-03   -0.54851E-05    19   0.452E-02    0.636E-03
DAV:  11    -0.129147854456E+02   -0.14393E-03   -0.95825E-06    18   0.209E-02    0.253E-03
DAV:  12    -0.129148280911E+02   -0.42645E-04   -0.14401E-06    19   0.738E-03    0.231E-03
DAV:  13    -0.129148550033E+02   -0.26912E-04   -0.13748E-06    19   0.722E-03    0.510E-04
DAV:  14    -0.129148600754E+02   -0.50721E-05   -0.14137E-07    20   0.239E-03
   2 F= -.12914860E+02 E0= -.12914860E+02  d E =0.175729E+01
       N       E                     dE             d eps       ncg     rms          rms(c)
DAV:   1    -0.148706832039E+02   -0.19558E+01   -0.11052E+02    18   0.936E+01    0.379E+00
DAV:   2    -0.148789600715E+02   -0.82769E-02   -0.27375E+00    18   0.140E+01    0.291E+00
DAV:   3    -0.147982415377E+02    0.80719E-01   -0.34223E-01    27   0.471E+00    0.157E+00
DAV:   4    -0.147887343942E+02    0.95071E-02   -0.14885E-01    28   0.325E+00    0.502E-01
DAV:   5    -0.147856887061E+02    0.30457E-02   -0.32656E-02    20   0.148E+00    0.226E-01
DAV:   6    -0.147870373680E+02   -0.13487E-02   -0.25690E-03    19   0.420E-01    0.309E-02
DAV:   7    -0.147878078713E+02   -0.77050E-03   -0.17970E-04    20   0.999E-02    0.243E-02
DAV:   8    -0.147896036942E+02   -0.17958E-02   -0.39715E-04    20   0.973E-02    0.132E-02
DAV:   9    -0.147901484519E+02   -0.54476E-03   -0.66233E-05    20   0.487E-02    0.105E-02
DAV:  10    -0.147906002023E+02   -0.45175E-03   -0.75510E-05    19   0.483E-02    0.329E-03
DAV:  11    -0.147907520843E+02   -0.15188E-03   -0.62264E-06    20   0.146E-02    0.240E-03
DAV:  12    -0.147908169337E+02   -0.64849E-04   -0.32332E-06    18   0.957E-03    0.988E-04
DAV:  13    -0.147908398051E+02   -0.22871E-04   -0.11687E-06    20   0.546E-03    0.306E-04
DAV:  14    -0.147908426241E+02   -0.28190E-05   -0.70844E-08    18   0.141E-03
   3 F= -.14790843E+02 E0= -.14790843E+02  d E =-.118695E+00
       N       E                     dE             d eps       ncg     rms          rms(c)
DAV:   1    -0.147922302933E+02   -0.13905E-02   -0.43052E-02    18   0.198E+00    0.954E-02
DAV:   2    -0.147921428155E+02    0.87478E-04   -0.71606E-04    18   0.238E-01    0.570E-02
DAV:   3    -0.147921236172E+02    0.19198E-04   -0.20453E-04    19   0.129E-01    0.199E-02
DAV:   4    -0.147921216944E+02    0.19228E-05   -0.17354E-05    18   0.295E-02    0.814E-03
DAV:   5    -0.147921224229E+02   -0.72856E-06   -0.17570E-06    20   0.110E-02    0.236E-03
DAV:   6    -0.147921235048E+02   -0.10819E-05   -0.25345E-07    18   0.381E-03
   4 F= -.14792124E+02 E0= -.14792124E+02  d E =-.119976E+00
