 vasp.6.4.2 20Jul23 (build Nov 21 2024 16:34:56) gamma-only                      
 executed on             LinuxGNU date 2025.01.08  18:13:40
 running    1 mpi-ranks, with    8 threads/rank, on    1 nodes
 distrk:  each k-point on    1 cores,    1 groups
 distr:  one band on NCORE=   1 cores,    1 groups


--------------------------------------------------------------------------------------------------------


 INCAR:
   SYSTEM = CO
   LREAL = .FALSE.
   LWAVE = .FALSE.
   LCHARG = .TRUE.
   LVTOT = .FALSE.
   PREC = Normal
   ENCUT = 400
   ISMEAR = 1
   SIGMA = 0.0005
   EDIFF = 1E-5
   EDIFFG = 1E-4
   NSW = 100
   ISIF = 2
   IBRION = 2
   ISPIN = 1
   POTIM = 0.5
   IALGO = 38
   NELMIN = 6
   NELM = 40
   NCORE = 2

 POTCAR:    PAW_PBE O 08Apr2002                   
 POTCAR:    PAW_PBE C 08Apr2002                   
 POTCAR:    PAW_PBE O 08Apr2002                   
   SHA256 =  818f92134a0a090dccd8ba1447fa70422a3b330e708bb4f08108d8ae51209ddf O/POTCAR              
   COPYR  = (c) Copyright 08Apr2002 Georg Kresse                                                    
   COPYR  = This file is part of the software VASP. Any use, copying, and all other rights are regul
   COPYR  = If you do not have a valid VASP license, you may not use, copy or distribute this file. 
   VRHFIN =O: s2p4                                                                                  
   LEXCH  = PE                                                                                      
   EATOM  =   432.3788 eV,   31.7789 Ry                                                             
                                                                                                    
   TITEL  = PAW_PBE O 08Apr2002                                                                     
   LULTRA =        F    use ultrasoft PP ?                                                          
   IUNSCR =        1    unscreen: 0-lin 1-nonlin 2-no                                               
   RPACOR =    1.200    partial core radius                                                         
   POMASS =   16.000; ZVAL   =    6.000    mass and valenz                                          
   RCORE  =    1.520    outmost cutoff radius                                                       
   RWIGS  =    1.550; RWIGS  =    0.820    wigner-seitz radius (au A)                               
   ENMAX  =  400.000; ENMIN  =  300.000 eV                                                          
   ICORE  =        2    local potential                                                             
   LCOR   =        T    correct aug charges                                                         
   LPAW   =        T    paw PP                                                                      
   EAUG   =  605.392                                                                                
   DEXC   =    0.000                                                                                
   RMAX   =    1.553    core radius for proj-oper                                                   
   RAUG   =    1.300    factor for augmentation sphere                                              
   RDEP   =    1.550    radius for radial grids                                                     
   RDEPT  =    1.329    core radius for aug-charge                                                  
                                                                                                    
   Atomic configuration                                                                             
    4 entries                                                                                       
     n  l   j            E        occ.                                                              
     1  0  0.50      -514.6923   2.0000                                                             
     2  0  0.50       -23.9615   2.0000                                                             
     2  1  0.50        -9.0305   4.0000                                                             
     3  2  1.50        -9.5241   0.0000                                                             
   Description                                                                                      
     l       E           TYP  RCUT    TYP  RCUT                                                     
     0    -23.9615318     23  1.200                                                                 
     0     -9.5240782     23  1.200                                                                 
     1     -9.0304911     23  1.520                                                                 
     1      8.1634956     23  1.520                                                                 
     2     -9.5240782      7  1.500                                                                 
  local pseudopotential read in
  partial core-charges read in
  partial kinetic energy density read in
  kinetic energy density of atom read in
  atomic valenz-charges read in
  non local Contribution for L=           0  read in
    real space projection operators read in
  non local Contribution for L=           0  read in
    real space projection operators read in
  non local Contribution for L=           1  read in
    real space projection operators read in
  non local Contribution for L=           1  read in
    real space projection operators read in
    PAW grid and wavefunctions read in

   number of l-projection  operators is LMAX  =           4
   number of lm-projection operators is LMMAX =           8

 POTCAR:    PAW_PBE C 08Apr2002                   
   SHA256 =  253f7b50bb8d59471dbedb8285d89021f4a42ed1a2c5d38a03a736e69125dd95 C/POTCAR              
   COPYR  = (c) Copyright 08Apr2002 Georg Kresse                                                    
   COPYR  = This file is part of the software VASP. Any use, copying, and all other rights are regul
   COPYR  = If you do not have a valid VASP license, you may not use, copy or distribute this file. 
   VRHFIN =C: s2p2                                                                                  
   LEXCH  = PE                                                                                      
   EATOM  =   147.1560 eV,   10.8157 Ry                                                             
                                                                                                    
   TITEL  = PAW_PBE C 08Apr2002                                                                     
   LULTRA =        F    use ultrasoft PP ?                                                          
   IUNSCR =        1    unscreen: 0-lin 1-nonlin 2-no                                               
   RPACOR =    1.200    partial core radius                                                         
   POMASS =   12.011; ZVAL   =    4.000    mass and valenz                                          
   RCORE  =    1.500    outmost cutoff radius                                                       
   RWIGS  =    1.630; RWIGS  =    0.863    wigner-seitz radius (au A)                               
   ENMAX  =  400.000; ENMIN  =  300.000 eV                                                          
   ICORE  =        2    local potential                                                             
   LCOR   =        T    correct aug charges                                                         
   LPAW   =        T    paw PP                                                                      
   EAUG   =  644.873                                                                                
   DEXC   =    0.000                                                                                
   RMAX   =    1.529    core radius for proj-oper                                                   
   RAUG   =    1.300    factor for augmentation sphere                                              
   RDEP   =    1.501    radius for radial grids                                                     
   RDEPT  =    1.300    core radius for aug-charge                                                  
                                                                                                    
   Atomic configuration                                                                             
    4 entries                                                                                       
     n  l   j            E        occ.                                                              
     1  0  0.50      -273.3789   2.0000                                                             
     2  0  0.50       -13.7508   2.0000                                                             
     2  1  0.50        -5.2854   2.0000                                                             
     3  2  1.50        -5.4423   0.0000                                                             
   Description                                                                                      
     l       E           TYP  RCUT    TYP  RCUT                                                     
     0    -13.7508458     23  1.200                                                                 
     0     -8.2022199     23  1.200                                                                 
     1     -5.2854383     23  1.500                                                                 
     1     34.0145650     23  1.500                                                                 
     2     -5.4423304      7  1.500                                                                 
  local pseudopotential read in
  partial core-charges read in
  partial kinetic energy density read in
  atomic valenz-charges read in
  non local Contribution for L=           0  read in
    real space projection operators read in
  non local Contribution for L=           0  read in
    real space projection operators read in
  non local Contribution for L=           1  read in
    real space projection operators read in
  non local Contribution for L=           1  read in
    real space projection operators read in
    PAW grid and wavefunctions read in

   number of l-projection  operators is LMAX  =           4
   number of lm-projection operators is LMMAX =           8

  PAW_PBE O 08Apr2002                   :
 energy of atom  1       EATOM= -432.3788
 kinetic energy error for atom=    0.1156 (will be added to EATOM!!)
  PAW_PBE C 08Apr2002                   :
 energy of atom  2       EATOM= -147.1560
 kinetic energy error for atom=    0.0288 (will be added to EATOM!!)


 POSCAR: H2O
  positions in direct lattice
  No initial velocities read in
 exchange correlation table for  LEXCH =        8
   RHO(1)=    0.500       N(1)  =     2000
   RHO(2)=  100.500       N(2)  =     4000



--------------------------------------------------------------------------------------------------------


 ion  position               nearest neighbor table
   1  0.500  0.500  0.500-   2 1.10
   2  0.500  0.571  0.416-   1 1.10

  LATTYP: Found a simple cubic cell.
 ALAT       =    10.0000000000
  
  Lattice vectors:
  
 A1 = (  10.0000000000,   0.0000000000,   0.0000000000)
 A2 = (   0.0000000000,  10.0000000000,   0.0000000000)
 A3 = (   0.0000000000,   0.0000000000,  10.0000000000)


Analysis of symmetry for initial positions (statically):
=====================================================================
 Subroutine PRICEL returns:
 Original cell was already a primitive cell.
 

 Routine SETGRP: Setting up the symmetry group for a 
 simple cubic supercell.


 Subroutine GETGRP returns: Found  2 space group operations
 (whereof  2 operations were pure point group operations)
 out of a pool of 48 trial point group operations.


The static configuration has the point symmetry C_1h.


Analysis of symmetry for dynamics (positions and initial velocities):
=====================================================================
 Subroutine PRICEL returns:
 Original cell was already a primitive cell.
 

 Routine SETGRP: Setting up the symmetry group for a 
 simple cubic supercell.


 Subroutine GETGRP returns: Found  2 space group operations
 (whereof  2 operations were pure point group operations)
 out of a pool of 48 trial point group operations.


The dynamic configuration has the point symmetry C_1h.


Analysis of constrained symmetry for selective dynamics:
=====================================================================
 Subroutine PRICEL returns:
 Original cell was already a primitive cell.
 

 Routine SETGRP: Setting up the symmetry group for a 
 simple cubic supercell.


 Subroutine GETGRP returns: Found  2 space group operations
 (whereof  2 operations were pure point group operations)
 out of a pool of 48 trial point group operations.


The constrained configuration has the point symmetry C_1h.


 Subroutine INISYM returns: Found  2 space group operations
 (whereof  2 operations are pure point group operations),
 and found     1 'primitive' translations


----------------------------------------------------------------------------------------

                                     Primitive cell                                     

  volume of cell :    1000.0000

  direct lattice vectors                    reciprocal lattice vectors
    10.000000000  0.000000000  0.000000000     0.100000000  0.000000000  0.000000000
     0.000000000 10.000000000  0.000000000     0.000000000  0.100000000  0.000000000
     0.000000000  0.000000000 10.000000000     0.000000000  0.000000000  0.100000000

  length of vectors
    10.000000000 10.000000000 10.000000000     0.100000000  0.100000000  0.100000000

  position of ions in fractional coordinates (direct lattice)
     0.500000000  0.500000000  0.500000000
     0.500000000  0.570706600  0.415735100

  ion indices of the primitive-cell ions
   primitive index   ion index
                 1           1
                 2           2

----------------------------------------------------------------------------------------



 KPOINTS: Gamma-point only                        

Automatic generation of k-mesh.
 Grid dimensions read from file:
 generate k-points for:    1    1    1

 Generating k-lattice:

  Cartesian coordinates                     Fractional coordinates (reciprocal lattice)
     0.100000000  0.000000000  0.000000000     1.000000000  0.000000000  0.000000000
     0.000000000  0.100000000  0.000000000     0.000000000  1.000000000  0.000000000
     0.000000000  0.000000000  0.100000000     0.000000000  0.000000000  1.000000000

  Length of vectors
     0.100000000  0.100000000  0.100000000

  Shift w.r.t. Gamma in fractional coordinates (k-lattice)
     0.000000000  0.000000000  0.000000000

 
 Subroutine IBZKPT returns following result:
 ===========================================
 
 Found      1 irreducible k-points:
 
 Following reciprocal coordinates:
            Coordinates               Weight
  0.000000  0.000000  0.000000      1.000000
 
 Following cartesian coordinates:
            Coordinates               Weight
  0.000000  0.000000  0.000000      1.000000
 


--------------------------------------------------------------------------------------------------------




 Dimension of arrays:
   k-points           NKPTS =      1   k-points in BZ     NKDIM =      1   number of bands    NBANDS=      9
   number of dos      NEDOS =    301   number of ions     NIONS =      2
   non local maximal  LDIM  =      4   non local SUM 2l+1 LMDIM =      8
   total plane-waves  NPLWV = 125000
   max r-space proj   IRMAX =      1   max aug-charges    IRDMAX=   1821
   dimension x,y,z NGX =    50 NGY =   50 NGZ =   50
   dimension x,y,z NGXF=   100 NGYF=  100 NGZF=  100
   support grid    NGXF=   100 NGYF=  100 NGZF=  100
   ions per type =               1   1
   NGX,Y,Z   is equivalent  to a cutoff of   8.31,  8.31,  8.31 a.u.
   NGXF,Y,Z  is equivalent  to a cutoff of  16.62, 16.62, 16.62 a.u.

 SYSTEM =  CO                                      
 POSCAR =  H2O                                     

 Startparameter for this run:
   NWRITE =      2    write-flag & timer
   PREC   = normal    normal or accurate (medium, high low for compatibility)
   ISTART =      0    job   : 0-new  1-cont  2-samecut
   ICHARG =      2    charge: 1-file 2-atom 10-const
   ISPIN  =      1    spin polarized calculation?
   LNONCOLLINEAR =      F non collinear calculations
   LSORBIT =      F    spin-orbit coupling
   INIWAV =      1    electr: 0-lowe 1-rand  2-diag
   LASPH  =      F    aspherical Exc in radial PAW
 Electronic Relaxation 1
   ENCUT  =  400.0 eV  29.40 Ry    5.42 a.u.  16.31 16.31 16.31*2*pi/ulx,y,z
   ENINI  =  400.0     initial cutoff
   ENAUG  =  644.9 eV  augmentation charge cutoff
   NELM   =     40;   NELMIN=  6; NELMDL=  0     # of ELM steps 
   EDIFF  = 0.1E-04   stopping-criterion for ELM
   LREAL  =      F    real-space projection
   NLSPLINE    = F    spline interpolate recip. space projectors
   LCOMPAT=      F    compatible to vasp.4.4
   GGA_COMPAT  = T    GGA compatible to vasp.4.4-vasp.4.6
   LMAXPAW     = -100 max onsite density
   LMAXMIX     =    2 max onsite mixed and CHGCAR
   VOSKOWN=      0    Vosko Wilk Nusair interpolation
   ROPT   =    0.00000   0.00000
 Ionic relaxation
   EDIFFG = 0.1E-03   stopping-criterion for IOM
   NSW    =    100    number of steps for IOM
   NBLOCK =      1;   KBLOCK =    100    inner block; outer block 
   IBRION =      2    ionic relax: 0-MD 1-quasi-New 2-CG
   NFREE  =      1    steps in history (QN), initial steepest desc. (CG)
   ISIF   =      2    stress and relaxation
   IWAVPR =     11    prediction:  0-non 1-charg 2-wave 3-comb
   ISYM   =      2    0-nonsym 1-usesym 2-fastsym
   LCORR  =      T    Harris-Foulkes like correction to forces

   POTIM  = 0.5000    time-step for ionic-motion
   TEIN   =    0.0    initial temperature
   TEBEG  =    0.0;   TEEND  =   0.0 temperature during run
   SMASS  =  -3.00    Nose mass-parameter (am)
   estimated Nose-frequenzy (Omega)   =  0.10E-29 period in steps = 0.13E+47 mass=  -0.229E-26a.u.
   SCALEE = 1.0000    scale energy and forces
   NPACO  =    256;   APACO  = 10.0  distance and # of slots for P.C.
   PSTRESS=    0.0 pullay stress

  Mass of Ions in am
   POMASS =  16.00 12.01
  Ionic Valenz
   ZVAL   =   6.00  4.00
  Atomic Wigner-Seitz radii
   RWIGS  =  -1.00 -1.00
  virtual crystal weights 
   VCA    =   1.00  1.00
   NELECT =      10.0000    total number of electrons
   NUPDOWN=      -1.0000    fix difference up-down

 DOS related values:
   EMIN   =  10.00;   EMAX   =-10.00  energy-range for DOS
   EFERMI =   0.00;   METHOD = LEGACY      
   ISMEAR =     1;   SIGMA  =   0.00  broadening in eV -4-tet -1-fermi 0-gaus

 Electronic relaxation 2 (details)
   IALGO  =     38    algorithm
   LDIAG  =      T    sub-space diagonalisation (order eigenvalues)
   LSUBROT=      F    optimize rotation matrix (better conditioning)
   TURBO    =      0    0=normal 1=particle mesh
   IRESTART =      0    0=no restart 2=restart with 2 vectors
   NREBOOT  =      0    no. of reboots
   NMIN     =      0    reboot dimension
   EREF     =   0.00    reference energy to select bands
   IMIX   =      4    mixing-type and parameters
     AMIX     =   0.40;   BMIX     =  1.00
     AMIX_MAG =   1.60;   BMIX_MAG =  1.00
     AMIN     =   0.10
     WC   =   100.;   INIMIX=   1;  MIXPRE=   1;  MAXMIX= -45

 Intra band minimization:
   WEIMIN = 0.0010     energy-eigenvalue tresh-hold
   EBREAK =  0.28E-06  absolut break condition
   DEPER  =   0.30     relativ break condition  

   TIME   =   0.40     timestep for ELM

  volume/ion in A,a.u.               =     500.00      3374.17
  Fermi-wavevector in a.u.,A,eV,Ry     =   0.352702  0.666511  1.692549  0.124399
  Thomas-Fermi vector in A             =   1.266362

 Write flags
   LWAVE        =      F    write WAVECAR
   LDOWNSAMPLE  =      F    k-point downsampling of WAVECAR
   LCHARG       =      T    write CHGCAR
   LVTOT        =      F    write LOCPOT, total local potential
   LVHAR        =      F    write LOCPOT, Hartree potential only
   LELF         =      F    write electronic localiz. function (ELF)
   LORBIT       =      0    0 simple, 1 ext, 2 COOP (PROOUT), +10 PAW based schemes


 Dipole corrections
   LMONO  =      F    monopole corrections only (constant potential shift)
   LDIPOL =      F    correct potential (dipole corrections)
   IDIPOL =      0    1-x, 2-y, 3-z, 4-all directions 
   EPSILON=  1.0000000 bulk dielectric constant

 Exchange correlation treatment:
   GGA     =    --    GGA type
   LEXCH   =     8    internal setting for exchange type
   LIBXC   =     F    Libxc                    
   VOSKOWN =     0    Vosko Wilk Nusair interpolation
   LHFCALC =     F    Hartree Fock is set to
   LHFONE  =     F    Hartree Fock one center treatment
   AEXX    =    0.0000 exact exchange contribution

 Linear response parameters
   LEPSILON=     F    determine dielectric tensor
   LRPA    =     F    only Hartree local field effects (RPA)
   LNABLA  =     F    use nabla operator in PAW spheres
   LVEL    =     F    velocity operator in full k-point grid
   CSHIFT  =0.1000    complex shift for real part using Kramers Kronig
   OMEGAMAX=  -1.0    maximum frequency
   DEG_THRESHOLD= 0.2000000E-02 threshold for treating states as degnerate
   RTIME   =   -0.100 relaxation time in fs
  (WPLASMAI=    0.000 imaginary part of plasma frequency in eV, 0.658/RTIME)
   DFIELD  = 0.0000000 0.0000000 0.0000000 field for delta impulse in time

  Optional k-point grid parameters
   LKPOINTS_OPT  =     F    use optional k-point grid
   KPOINTS_OPT_MODE=     1    mode for optional k-point grid

 Orbital magnetization related:
   ORBITALMAG=     F  switch on orbital magnetization
   LCHIMAG   =     F  perturbation theory with respect to B field
   DQ        =  0.001000  dq finite difference perturbation B field
   LLRAUG    =     F  two centre corrections for induced B field
   LBONE     =     F  B-component reconstruction in AE one-centre
   LVGVCALC  =     T  calculate vGv susceptibility
   LVGVAPPL  =     F  apply vGv susceptibility instead of pGv for G=0

 Random number generation:
   RANDOM_GENERATOR = DEFAULT
   PCG_SEED         = not used


--------------------------------------------------------------------------------------------------------


 conjugate gradient relaxation of ions
   using selective dynamics as specified on POSCAR
 charge density and potential will be updated during run
 non-spin polarized calculation
 Variant of blocked Davidson
 Davidson routine will perform the subspace rotation
 perform sub-space diagonalisation
    after iterative eigenvector-optimisation
 modified Broyden-mixing scheme, WC =      100.0
 initial mixing is a Kerker type mixing with AMIX =  0.4000 and BMIX =      1.0000
 Hartree-type preconditioning will be used
 using additional bands            4
 reciprocal scheme for non local part
 use partial core corrections
 calculate Harris-corrections to forces   (improved forces if not selfconsistent)
 use gradient corrections 
 use of overlap-Matrix (Vanderbilt PP)
 Methfessel and Paxton  Order N= 1 SIGMA  =   0.00


--------------------------------------------------------------------------------------------------------


  energy-cutoff  :      400.00
  volume of cell :     1000.00
      direct lattice vectors                 reciprocal lattice vectors
    10.000000000  0.000000000  0.000000000     0.100000000  0.000000000  0.000000000
     0.000000000 10.000000000  0.000000000     0.000000000  0.100000000  0.000000000
     0.000000000  0.000000000 10.000000000     0.000000000  0.000000000  0.100000000

  length of vectors
    10.000000000 10.000000000 10.000000000     0.100000000  0.100000000  0.100000000



 k-points in units of 2pi/SCALE and weight: Gamma-point only                        
   0.00000000  0.00000000  0.00000000       1.000

 k-points in reciprocal lattice and weights: Gamma-point only                        
   0.00000000  0.00000000  0.00000000       1.000

 position of ions in fractional coordinates (direct lattice) 
   0.50000000  0.50000000  0.50000000
   0.50000000  0.57070660  0.41573510

 position of ions in cartesian coordinates  (Angst):
   5.00000000  5.00000000  5.00000000
   5.00000000  5.70706600  4.15735100



--------------------------------------------------------------------------------------------------------


 use serial FFT for orbitals x direction half grid
 k-point   1 :   0.0000 0.0000 0.0000  plane waves:    9019

 maximum and minimum number of plane-waves per node :      9019     9019

 maximum number of plane-waves:      9019
 maximum index in each direction: 
   IXMAX=   16   IYMAX=   16   IZMAX=   16
   IXMIN=    0   IYMIN=  -16   IZMIN=  -16


 serial   3D FFT for wavefunctions
 parallel 3D FFT for charge:
    minimum data exchange during FFTs selected (reduces bandwidth)


 total amount of memory used by VASP MPI-rank0   129305. kBytes
=======================================================================

   base      :      30000. kBytes
   nonl-proj :       1443. kBytes
   fftplans  :      34720. kBytes
   grid      :      61840. kBytes
   one-center:          3. kBytes
   wavefun   :       1299. kBytes

     INWAV:  cpu time      0.0068: real time      0.0000
 Broyden mixing: mesh for mixing (old mesh)
   NGX = 33   NGY = 33   NGZ = 33
  (NGX  =100   NGY  =100   NGZ  =100)
  gives a total of  35937 points

 initial charge density was supplied:
 charge density of overlapping atoms calculated
 number of electron      10.0000000 magnetization 
 keeping initial charge density in first step


--------------------------------------------------------------------------------------------------------


 Maximum index for augmentation-charges         1575 (set IRDMAX)


--------------------------------------------------------------------------------------------------------


 First call to EWALD:  gamma=   0.177
 Maximum number of real-space cells 3x 3x 3
 Maximum number of reciprocal cells 3x 3x 3

    FEWALD:  cpu time      0.6334: real time      0.0824


--------------------------------------- Ionic step        1  -------------------------------------------




--------------------------------------- Iteration      1(   1)  ---------------------------------------


    POTLOK:  cpu time      1.0946: real time      0.1986
    SETDIJ:  cpu time      0.0097: real time      0.0021
     EDDAV:  cpu time     25.3909: real time      3.2046
       DOS:  cpu time      0.0001: real time      0.0001
    --------------------------------------------
      LOOP:  cpu time     26.4953: real time      3.4054

 eigenvalue-minimisations  :    26
 total energy-change (2. order) : 0.8708744E+02  (-0.2340959E+03)
 number of electron      10.0000000 magnetization 
 augmentation part       10.0000000 magnetization 

 Free energy of the ion-electron system (eV)
  ---------------------------------------------------
  alpha Z        PSCENC =         0.43695755
  Ewald energy   TEWEN  =       110.76723616
  -Hartree energ DENC   =      -567.16337441
  -exchange      EXHF   =         0.00000000
  -V(xc)+E(xc)   XCENC  =        39.40112363
  PAW double counting   =       455.07152327     -457.43959975
  entropy T*S    EENTRO =         0.00000000
  eigenvalues    EBANDS =       -73.37684989
  atomic energy  EATOM  =       579.39041991
  Solvation  Ediel_sol  =         0.00000000
  ---------------------------------------------------
  free energy    TOTEN  =        87.08743647 eV

  energy without entropy =       87.08743647  energy(sigma->0) =       87.08743647


--------------------------------------------------------------------------------------------------------




--------------------------------------- Iteration      1(   2)  ---------------------------------------


     EDDAV:  cpu time     27.3021: real time      3.4428
       DOS:  cpu time      0.0027: real time      0.0001
    --------------------------------------------
      LOOP:  cpu time     27.3048: real time      3.4429

 eigenvalue-minimisations  :    34
 total energy-change (2. order) :-0.8627854E+02  (-0.8598630E+02)
 number of electron      10.0000000 magnetization 
 augmentation part       10.0000000 magnetization 

 Free energy of the ion-electron system (eV)
  ---------------------------------------------------
  alpha Z        PSCENC =         0.43695755
  Ewald energy   TEWEN  =       110.76723616
  -Hartree energ DENC   =      -567.16337441
  -exchange      EXHF   =         0.00000000
  -V(xc)+E(xc)   XCENC  =        39.40112363
  PAW double counting   =       455.07152327     -457.43959975
  entropy T*S    EENTRO =         0.00000000
  eigenvalues    EBANDS =      -159.65539296
  atomic energy  EATOM  =       579.39041991
  Solvation  Ediel_sol  =         0.00000000
  ---------------------------------------------------
  free energy    TOTEN  =         0.80889339 eV

  energy without entropy =        0.80889339  energy(sigma->0) =        0.80889339


--------------------------------------------------------------------------------------------------------




--------------------------------------- Iteration      1(   3)  ---------------------------------------


     EDDAV:  cpu time     21.6540: real time      2.7220
       DOS:  cpu time      0.0001: real time      0.0001
    --------------------------------------------
      LOOP:  cpu time     21.6541: real time      2.7220

 eigenvalue-minimisations  :    19
 total energy-change (2. order) :-0.1604789E+02  (-0.1604524E+02)
 number of electron      10.0000000 magnetization 
 augmentation part       10.0000000 magnetization 

 Free energy of the ion-electron system (eV)
  ---------------------------------------------------
  alpha Z        PSCENC =         0.43695755
  Ewald energy   TEWEN  =       110.76723616
  -Hartree energ DENC   =      -567.16337441
  -exchange      EXHF   =         0.00000000
  -V(xc)+E(xc)   XCENC  =        39.40112363
  PAW double counting   =       455.07152327     -457.43959975
  entropy T*S    EENTRO =         0.00000000
  eigenvalues    EBANDS =      -175.70328536
  atomic energy  EATOM  =       579.39041991
  Solvation  Ediel_sol  =         0.00000000
  ---------------------------------------------------
  free energy    TOTEN  =       -15.23899900 eV

  energy without entropy =      -15.23899900  energy(sigma->0) =      -15.23899900


--------------------------------------------------------------------------------------------------------




--------------------------------------- Iteration      1(   4)  ---------------------------------------


     EDDAV:  cpu time     28.3674: real time      3.5791
       DOS:  cpu time      0.0015: real time      0.0001
    --------------------------------------------
      LOOP:  cpu time     28.3689: real time      3.5792

 eigenvalue-minimisations  :    34
 total energy-change (2. order) :-0.4047392E+00  (-0.4046778E+00)
 number of electron      10.0000000 magnetization 
 augmentation part       10.0000000 magnetization 

 Free energy of the ion-electron system (eV)
  ---------------------------------------------------
  alpha Z        PSCENC =         0.43695755
  Ewald energy   TEWEN  =       110.76723616
  -Hartree energ DENC   =      -567.16337441
  -exchange      EXHF   =         0.00000000
  -V(xc)+E(xc)   XCENC  =        39.40112363
  PAW double counting   =       455.07152327     -457.43959975
  entropy T*S    EENTRO =         0.00000000
  eigenvalues    EBANDS =      -176.10802451
  atomic energy  EATOM  =       579.39041991
  Solvation  Ediel_sol  =         0.00000000
  ---------------------------------------------------
  free energy    TOTEN  =       -15.64373816 eV

  energy without entropy =      -15.64373816  energy(sigma->0) =      -15.64373816


--------------------------------------------------------------------------------------------------------




--------------------------------------- Iteration      1(   5)  ---------------------------------------


     EDDAV:  cpu time     19.9041: real time      2.5110
       DOS:  cpu time      0.0010: real time      0.0002
    CHARGE:  cpu time      0.7018: real time      0.0952
    MIXING:  cpu time      0.0392: real time      0.0139
    --------------------------------------------
      LOOP:  cpu time     20.6462: real time      2.6204

 eigenvalue-minimisations  :    20
 total energy-change (2. order) :-0.2051131E-03  (-0.2051115E-03)
 number of electron      10.0000115 magnetization 
 augmentation part        0.7457150 magnetization 

 Broyden mixing:
  rms(total) = 0.74886E+00    rms(broyden)= 0.74789E+00
  rms(prec ) = 0.88192E+00
  weight for this iteration     100.00

 Free energy of the ion-electron system (eV)
  ---------------------------------------------------
  alpha Z        PSCENC =         0.43695755
  Ewald energy   TEWEN  =       110.76723616
  -Hartree energ DENC   =      -567.16337441
  -exchange      EXHF   =         0.00000000
  -V(xc)+E(xc)   XCENC  =        39.40112363
  PAW double counting   =       455.07152327     -457.43959975
  entropy T*S    EENTRO =         0.00000000
  eigenvalues    EBANDS =      -176.10822963
  atomic energy  EATOM  =       579.39041991
  Solvation  Ediel_sol  =         0.00000000
  ---------------------------------------------------
  free energy    TOTEN  =       -15.64394327 eV

  energy without entropy =      -15.64394327  energy(sigma->0) =      -15.64394327


--------------------------------------------------------------------------------------------------------




--------------------------------------- Iteration      1(   6)  ---------------------------------------


    POTLOK:  cpu time      1.0501: real time      0.1928
    SETDIJ:  cpu time      0.0016: real time      0.0016
     EDDAV:  cpu time     19.7188: real time      2.4844
       DOS:  cpu time      0.0014: real time      0.0001
    CHARGE:  cpu time      0.7041: real time      0.0946
    MIXING:  cpu time      0.0264: real time      0.0124
    --------------------------------------------
      LOOP:  cpu time     21.5022: real time      2.7859

 eigenvalue-minimisations  :    18
 total energy-change (2. order) : 0.7930135E+00  (-0.3147674E+00)
 number of electron      10.0000101 magnetization 
 augmentation part        0.6737436 magnetization 

 Broyden mixing:
  rms(total) = 0.39625E+00    rms(broyden)= 0.39604E+00
  rms(prec ) = 0.44913E+00
  weight for this iteration     100.00

 eigenvalues of (default mixing * dielectric matrix)
  average eigenvalue GAMMA=   1.2298
  1.2298

 Free energy of the ion-electron system (eV)
  ---------------------------------------------------
  alpha Z        PSCENC =         0.43695755
  Ewald energy   TEWEN  =       110.76723616
  -Hartree energ DENC   =      -582.27445970
  -exchange      EXHF   =         0.00000000
  -V(xc)+E(xc)   XCENC  =        40.27569827
  PAW double counting   =       623.03004712     -625.58829604
  entropy T*S    EENTRO =         0.00000000
  eigenvalues    EBANDS =      -160.88853301
  atomic energy  EATOM  =       579.39041991
  Solvation  Ediel_sol  =         0.00000000
  ---------------------------------------------------
  free energy    TOTEN  =       -14.85092974 eV

  energy without entropy =      -14.85092974  energy(sigma->0) =      -14.85092974


--------------------------------------------------------------------------------------------------------




--------------------------------------- Iteration      1(   7)  ---------------------------------------


    POTLOK:  cpu time      1.0132: real time      0.1892
    SETDIJ:  cpu time      0.0296: real time      0.0016
     EDDAV:  cpu time     25.6970: real time      3.2411
       DOS:  cpu time      0.0007: real time      0.0001
    CHARGE:  cpu time      0.6985: real time      0.0934
    MIXING:  cpu time      0.0420: real time      0.0129
    --------------------------------------------
      LOOP:  cpu time     27.4810: real time      3.5382

 eigenvalue-minimisations  :    27
 total energy-change (2. order) : 0.1541565E+00  (-0.6380866E-01)
 number of electron      10.0000105 magnetization 
 augmentation part        0.6881988 magnetization 

 Broyden mixing:
  rms(total) = 0.19303E+00    rms(broyden)= 0.19302E+00
  rms(prec ) = 0.21584E+00
  weight for this iteration     100.00

 eigenvalues of (default mixing * dielectric matrix)
  average eigenvalue GAMMA=   1.4846
  0.8040  2.1652

 Free energy of the ion-electron system (eV)
  ---------------------------------------------------
  alpha Z        PSCENC =         0.43695755
  Ewald energy   TEWEN  =       110.76723616
  -Hartree energ DENC   =      -585.82773208
  -exchange      EXHF   =         0.00000000
  -V(xc)+E(xc)   XCENC  =        40.49696780
  PAW double counting   =       759.91447338     -762.46048134
  entropy T*S    EENTRO =         0.00000000
  eigenvalues    EBANDS =      -157.41461462
  atomic energy  EATOM  =       579.39041991
  Solvation  Ediel_sol  =         0.00000000
  ---------------------------------------------------
  free energy    TOTEN  =       -14.69677325 eV

  energy without entropy =      -14.69677325  energy(sigma->0) =      -14.69677325


--------------------------------------------------------------------------------------------------------




--------------------------------------- Iteration      1(   8)  ---------------------------------------


    POTLOK:  cpu time      1.0094: real time      0.1892
    SETDIJ:  cpu time      0.0013: real time      0.0013
     EDDAV:  cpu time     28.5136: real time      3.5823
       DOS:  cpu time      0.0001: real time      0.0001
    CHARGE:  cpu time      0.6875: real time      0.0936
    MIXING:  cpu time      0.0437: real time      0.0134
    --------------------------------------------
      LOOP:  cpu time     30.2557: real time      3.8798

 eigenvalue-minimisations  :    28
 total energy-change (2. order) : 0.2925342E-01  (-0.1436212E-01)
 number of electron      10.0000103 magnetization 
 augmentation part        0.6769152 magnetization 

 Broyden mixing:
  rms(total) = 0.58041E-01    rms(broyden)= 0.58013E-01
  rms(prec ) = 0.64976E-01
  weight for this iteration     100.00

 eigenvalues of (default mixing * dielectric matrix)
  average eigenvalue GAMMA=   1.6602
  2.5887  1.6181  0.7739

 Free energy of the ion-electron system (eV)
  ---------------------------------------------------
  alpha Z        PSCENC =         0.43695755
  Ewald energy   TEWEN  =       110.76723616
  -Hartree energ DENC   =      -590.33160490
  -exchange      EXHF   =         0.00000000
  -V(xc)+E(xc)   XCENC  =        40.76668341
  PAW double counting   =       901.50571349     -904.06428549
  entropy T*S    EENTRO =         0.00000000
  eigenvalues    EBANDS =      -153.13863995
  atomic energy  EATOM  =       579.39041991
  Solvation  Ediel_sol  =         0.00000000
  ---------------------------------------------------
  free energy    TOTEN  =       -14.66751983 eV

  energy without entropy =      -14.66751983  energy(sigma->0) =      -14.66751983


--------------------------------------------------------------------------------------------------------




--------------------------------------- Iteration      1(   9)  ---------------------------------------


    POTLOK:  cpu time      1.0049: real time      0.1891
    SETDIJ:  cpu time      0.0014: real time      0.0014
     EDDAV:  cpu time     20.9747: real time      2.6426
       DOS:  cpu time      0.0014: real time      0.0001
    CHARGE:  cpu time      0.6928: real time      0.0934
    MIXING:  cpu time      0.0400: real time      0.0140
    --------------------------------------------
      LOOP:  cpu time     22.7152: real time      2.9406

 eigenvalue-minimisations  :    20
 total energy-change (2. order) : 0.4959537E-03  (-0.9826757E-03)
 number of electron      10.0000103 magnetization 
 augmentation part        0.6760284 magnetization 

 Broyden mixing:
  rms(total) = 0.96833E-02    rms(broyden)= 0.96716E-02
  rms(prec ) = 0.14931E-01
  weight for this iteration     100.00

 eigenvalues of (default mixing * dielectric matrix)
  average eigenvalue GAMMA=   1.4509
  2.3717  1.6995  0.7954  0.9371

 Free energy of the ion-electron system (eV)
  ---------------------------------------------------
  alpha Z        PSCENC =         0.43695755
  Ewald energy   TEWEN  =       110.76723616
  -Hartree energ DENC   =      -590.04556993
  -exchange      EXHF   =         0.00000000
  -V(xc)+E(xc)   XCENC  =        40.74945308
  PAW double counting   =       950.41882101     -952.94734701
  entropy T*S    EENTRO =         0.00000000
  eigenvalues    EBANDS =      -153.43699465
  atomic energy  EATOM  =       579.39041991
  Solvation  Ediel_sol  =         0.00000000
  ---------------------------------------------------
  free energy    TOTEN  =       -14.66702388 eV

  energy without entropy =      -14.66702388  energy(sigma->0) =      -14.66702388


--------------------------------------------------------------------------------------------------------




--------------------------------------- Iteration      1(  10)  ---------------------------------------


    POTLOK:  cpu time      1.0048: real time      0.1896
    SETDIJ:  cpu time      0.0014: real time      0.0014
     EDDAV:  cpu time     20.2263: real time      2.5402
       DOS:  cpu time      0.0021: real time      0.0001
    CHARGE:  cpu time      0.5754: real time      0.0788
    MIXING:  cpu time      0.0379: real time      0.0147
    --------------------------------------------
      LOOP:  cpu time     21.8479: real time      2.8248

 eigenvalue-minimisations  :    20
 total energy-change (2. order) :-0.8155768E-03  (-0.7983844E-04)
 number of electron      10.0000103 magnetization 
 augmentation part        0.6768716 magnetization 

 Broyden mixing:
  rms(total) = 0.40882E-02    rms(broyden)= 0.40875E-02
  rms(prec ) = 0.93724E-02
  weight for this iteration     100.00

 eigenvalues of (default mixing * dielectric matrix)
  average eigenvalue GAMMA=   1.6772
  2.4952  2.4253  0.7901  1.0015  1.6740

 Free energy of the ion-electron system (eV)
  ---------------------------------------------------
  alpha Z        PSCENC =         0.43695755
  Ewald energy   TEWEN  =       110.76723616
  -Hartree energ DENC   =      -589.99871324
  -exchange      EXHF   =         0.00000000
  -V(xc)+E(xc)   XCENC  =        40.74389339
  PAW double counting   =       945.02634541     -947.55163230
  entropy T*S    EENTRO =         0.00000000
  eigenvalues    EBANDS =      -153.48234633
  atomic energy  EATOM  =       579.39041991
  Solvation  Ediel_sol  =         0.00000000
  ---------------------------------------------------
  free energy    TOTEN  =       -14.66783945 eV

  energy without entropy =      -14.66783945  energy(sigma->0) =      -14.66783945


--------------------------------------------------------------------------------------------------------




--------------------------------------- Iteration      1(  11)  ---------------------------------------


    POTLOK:  cpu time      0.9964: real time      0.1880
    SETDIJ:  cpu time      0.0014: real time      0.0014
     EDDAV:  cpu time     17.4740: real time      2.1910
       DOS:  cpu time      0.0018: real time      0.0003
    CHARGE:  cpu time      0.6976: real time      0.0929
    MIXING:  cpu time      0.0379: real time      0.0152
    --------------------------------------------
      LOOP:  cpu time     19.2091: real time      2.4889

 eigenvalue-minimisations  :    18
 total energy-change (2. order) :-0.2230915E-02  (-0.8124965E-04)
 number of electron      10.0000103 magnetization 
 augmentation part        0.6769509 magnetization 

 Broyden mixing:
  rms(total) = 0.22990E-02    rms(broyden)= 0.22982E-02
  rms(prec ) = 0.42021E-02
  weight for this iteration     100.00

 eigenvalues of (default mixing * dielectric matrix)
  average eigenvalue GAMMA=   1.6557
  3.1070  2.4077  1.6002  0.7868  1.0164  1.0164

 Free energy of the ion-electron system (eV)
  ---------------------------------------------------
  alpha Z        PSCENC =         0.43695755
  Ewald energy   TEWEN  =       110.76723616
  -Hartree energ DENC   =      -590.40821447
  -exchange      EXHF   =         0.00000000
  -V(xc)+E(xc)   XCENC  =        40.75881530
  PAW double counting   =       943.21822781     -945.73638178
  entropy T*S    EENTRO =         0.00000000
  eigenvalues    EBANDS =      -153.09713085
  atomic energy  EATOM  =       579.39041991
  Solvation  Ediel_sol  =         0.00000000
  ---------------------------------------------------
  free energy    TOTEN  =       -14.67007037 eV

  energy without entropy =      -14.67007037  energy(sigma->0) =      -14.67007037


--------------------------------------------------------------------------------------------------------




--------------------------------------- Iteration      1(  12)  ---------------------------------------


    POTLOK:  cpu time      0.9953: real time      0.1861
    SETDIJ:  cpu time      0.0014: real time      0.0014
     EDDAV:  cpu time     22.0070: real time      2.7797
       DOS:  cpu time      0.0001: real time      0.0001
    CHARGE:  cpu time      0.4638: real time      0.0652
    MIXING:  cpu time      0.0638: real time      0.0179
    --------------------------------------------
      LOOP:  cpu time     23.5313: real time      3.0504

 eigenvalue-minimisations  :    20
 total energy-change (2. order) :-0.5239781E-03  (-0.5866943E-05)
 number of electron      10.0000103 magnetization 
 augmentation part        0.6768626 magnetization 

 Broyden mixing:
  rms(total) = 0.12735E-02    rms(broyden)= 0.12734E-02
  rms(prec ) = 0.28507E-02
  weight for this iteration     100.00

 eigenvalues of (default mixing * dielectric matrix)
  average eigenvalue GAMMA=   1.8847
  3.9144  2.5056  2.3015  1.6546  0.7881  1.0143  1.0143

 Free energy of the ion-electron system (eV)
  ---------------------------------------------------
  alpha Z        PSCENC =         0.43695755
  Ewald energy   TEWEN  =       110.76723616
  -Hartree energ DENC   =      -590.43029269
  -exchange      EXHF   =         0.00000000
  -V(xc)+E(xc)   XCENC  =        40.75780863
  PAW double counting   =       943.09087302     -945.60931658
  entropy T*S    EENTRO =         0.00000000
  eigenvalues    EBANDS =      -153.07428034
  atomic energy  EATOM  =       579.39041991
  Solvation  Ediel_sol  =         0.00000000
  ---------------------------------------------------
  free energy    TOTEN  =       -14.67059435 eV

  energy without entropy =      -14.67059435  energy(sigma->0) =      -14.67059435


--------------------------------------------------------------------------------------------------------




--------------------------------------- Iteration      1(  13)  ---------------------------------------


    POTLOK:  cpu time      0.9683: real time      0.1839
    SETDIJ:  cpu time      0.0014: real time      0.0014
     EDDAV:  cpu time     18.2334: real time      2.2937
       DOS:  cpu time      0.0039: real time      0.0001
    CHARGE:  cpu time      0.7027: real time      0.0933
    MIXING:  cpu time      0.0395: real time      0.0168
    --------------------------------------------
      LOOP:  cpu time     19.9492: real time      2.5892

 eigenvalue-minimisations  :    18
 total energy-change (2. order) :-0.9519101E-03  (-0.1803604E-04)
 number of electron      10.0000103 magnetization 
 augmentation part        0.6767780 magnetization 

 Broyden mixing:
  rms(total) = 0.82305E-03    rms(broyden)= 0.82283E-03
  rms(prec ) = 0.14309E-02
  weight for this iteration     100.00

 eigenvalues of (default mixing * dielectric matrix)
  average eigenvalue GAMMA=   1.9473
  4.9350  2.7532  2.3935  1.6230  0.7893  0.9386  1.0732  1.0732

 Free energy of the ion-electron system (eV)
  ---------------------------------------------------
  alpha Z        PSCENC =         0.43695755
  Ewald energy   TEWEN  =       110.76723616
  -Hartree energ DENC   =      -590.50254581
  -exchange      EXHF   =         0.00000000
  -V(xc)+E(xc)   XCENC  =        40.75796694
  PAW double counting   =       943.32430967     -945.84522217
  entropy T*S    EENTRO =         0.00000000
  eigenvalues    EBANDS =      -153.00066850
  atomic energy  EATOM  =       579.39041991
  Solvation  Ediel_sol  =         0.00000000
  ---------------------------------------------------
  free energy    TOTEN  =       -14.67154626 eV

  energy without entropy =      -14.67154626  energy(sigma->0) =      -14.67154626


--------------------------------------------------------------------------------------------------------




--------------------------------------- Iteration      1(  14)  ---------------------------------------


    POTLOK:  cpu time      0.9630: real time      0.1830
    SETDIJ:  cpu time      0.0013: real time      0.0013
     EDDAV:  cpu time     19.4812: real time      2.4651
       DOS:  cpu time      0.0017: real time      0.0001
    CHARGE:  cpu time      0.6815: real time      0.0935
    MIXING:  cpu time      0.0403: real time      0.0177
    --------------------------------------------
      LOOP:  cpu time     21.1690: real time      2.7606

 eigenvalue-minimisations  :    20
 total energy-change (2. order) :-0.2595589E-03  (-0.2140031E-05)
 number of electron      10.0000103 magnetization 
 augmentation part        0.6768397 magnetization 

 Broyden mixing:
  rms(total) = 0.41638E-03    rms(broyden)= 0.41622E-03
  rms(prec ) = 0.82043E-03
  weight for this iteration     100.00

 eigenvalues of (default mixing * dielectric matrix)
  average eigenvalue GAMMA=   2.1521
  6.0187  2.9619  2.5620  2.4094  1.6063  0.7891  1.0457  1.0457  0.9303

 Free energy of the ion-electron system (eV)
  ---------------------------------------------------
  alpha Z        PSCENC =         0.43695755
  Ewald energy   TEWEN  =       110.76723616
  -Hartree energ DENC   =      -590.50660453
  -exchange      EXHF   =         0.00000000
  -V(xc)+E(xc)   XCENC  =        40.75753852
  PAW double counting   =       943.30349995     -945.82460935
  entropy T*S    EENTRO =         0.00000000
  eigenvalues    EBANDS =      -152.99624402
  atomic energy  EATOM  =       579.39041991
  Solvation  Ediel_sol  =         0.00000000
  ---------------------------------------------------
  free energy    TOTEN  =       -14.67180582 eV

  energy without entropy =      -14.67180582  energy(sigma->0) =      -14.67180582


--------------------------------------------------------------------------------------------------------




--------------------------------------- Iteration      1(  15)  ---------------------------------------


    POTLOK:  cpu time      0.9594: real time      0.1827
    SETDIJ:  cpu time      0.0016: real time      0.0016
     EDDAV:  cpu time     19.8482: real time      2.5010
       DOS:  cpu time      0.0002: real time      0.0001
    CHARGE:  cpu time      0.6870: real time      0.0934
    MIXING:  cpu time      0.0492: real time      0.0187
    --------------------------------------------
      LOOP:  cpu time     21.5457: real time      2.7975

 eigenvalue-minimisations  :    20
 total energy-change (2. order) :-0.2553498E-03  (-0.2282656E-05)
 number of electron      10.0000103 magnetization 
 augmentation part        0.6768650 magnetization 

 Broyden mixing:
  rms(total) = 0.35788E-03    rms(broyden)= 0.35778E-03
  rms(prec ) = 0.49493E-03
  weight for this iteration     100.00

 eigenvalues of (default mixing * dielectric matrix)
  average eigenvalue GAMMA=   2.2006
  6.7111  3.5517  2.5131  2.4090  1.6640  0.7888  1.2223  1.2223  0.9496  0.9743

 Free energy of the ion-electron system (eV)
  ---------------------------------------------------
  alpha Z        PSCENC =         0.43695755
  Ewald energy   TEWEN  =       110.76723616
  -Hartree energ DENC   =      -590.50482963
  -exchange      EXHF   =         0.00000000
  -V(xc)+E(xc)   XCENC  =        40.75698432
  PAW double counting   =       943.18921776     -945.70951911
  entropy T*S    EENTRO =         0.00000000
  eigenvalues    EBANDS =      -152.99852812
  atomic energy  EATOM  =       579.39041991
  Solvation  Ediel_sol  =         0.00000000
  ---------------------------------------------------
  free energy    TOTEN  =       -14.67206117 eV

  energy without entropy =      -14.67206117  energy(sigma->0) =      -14.67206117


--------------------------------------------------------------------------------------------------------




--------------------------------------- Iteration      1(  16)  ---------------------------------------


    POTLOK:  cpu time      0.9453: real time      0.1809
    SETDIJ:  cpu time      0.0016: real time      0.0016
     EDDAV:  cpu time     19.9256: real time      2.5029
       DOS:  cpu time      0.0014: real time      0.0002
    CHARGE:  cpu time      0.6877: real time      0.0931
    MIXING:  cpu time      0.0419: real time      0.0195
    --------------------------------------------
      LOOP:  cpu time     21.6035: real time      2.7983

 eigenvalue-minimisations  :    20
 total energy-change (2. order) :-0.5347602E-04  (-0.3541812E-06)
 number of electron      10.0000103 magnetization 
 augmentation part        0.6768207 magnetization 

 Broyden mixing:
  rms(total) = 0.15998E-03    rms(broyden)= 0.15984E-03
  rms(prec ) = 0.23807E-03
  weight for this iteration     100.00

 eigenvalues of (default mixing * dielectric matrix)
  average eigenvalue GAMMA=   2.3570
  7.5341  4.3905  2.8040  2.4212  2.2410  1.6364  0.7888  1.0993  1.0993  0.9564
  0.9564

 Free energy of the ion-electron system (eV)
  ---------------------------------------------------
  alpha Z        PSCENC =         0.43695755
  Ewald energy   TEWEN  =       110.76723616
  -Hartree energ DENC   =      -590.50697742
  -exchange      EXHF   =         0.00000000
  -V(xc)+E(xc)   XCENC  =        40.75704689
  PAW double counting   =       943.21473175     -945.73518437
  entropy T*S    EENTRO =         0.00000000
  eigenvalues    EBANDS =      -152.99634511
  atomic energy  EATOM  =       579.39041991
  Solvation  Ediel_sol  =         0.00000000
  ---------------------------------------------------
  free energy    TOTEN  =       -14.67211464 eV

  energy without entropy =      -14.67211464  energy(sigma->0) =      -14.67211464


--------------------------------------------------------------------------------------------------------




--------------------------------------- Iteration      1(  17)  ---------------------------------------


    POTLOK:  cpu time      0.9629: real time      0.1821
    SETDIJ:  cpu time      0.0013: real time      0.0013
     EDDAV:  cpu time     19.6556: real time      2.4643
       DOS:  cpu time      0.0051: real time      0.0008
    CHARGE:  cpu time      0.6935: real time      0.0944
    MIXING:  cpu time      0.0437: real time      0.0208
    --------------------------------------------
      LOOP:  cpu time     21.3635: real time      2.7639

 eigenvalue-minimisations  :    18
 total energy-change (2. order) :-0.2789243E-04  (-0.1544107E-06)
 number of electron      10.0000103 magnetization 
 augmentation part        0.6768320 magnetization 

 Broyden mixing:
  rms(total) = 0.89196E-04    rms(broyden)= 0.89166E-04
  rms(prec ) = 0.11726E-03
  weight for this iteration     100.00

 eigenvalues of (default mixing * dielectric matrix)
  average eigenvalue GAMMA=   2.3309
  7.7730  4.7665  2.8327  2.4043  2.3174  1.5725  0.7888  1.3199  0.9501  0.9501
  1.1830  1.1126

 Free energy of the ion-electron system (eV)
  ---------------------------------------------------
  alpha Z        PSCENC =         0.43695755
  Ewald energy   TEWEN  =       110.76723616
  -Hartree energ DENC   =      -590.50072652
  -exchange      EXHF   =         0.00000000
  -V(xc)+E(xc)   XCENC  =        40.75667125
  PAW double counting   =       943.26927685     -945.78961641
  entropy T*S    EENTRO =         0.00000000
  eigenvalues    EBANDS =      -153.00236132
  atomic energy  EATOM  =       579.39041991
  Solvation  Ediel_sol  =         0.00000000
  ---------------------------------------------------
  free energy    TOTEN  =       -14.67214254 eV

  energy without entropy =      -14.67214254  energy(sigma->0) =      -14.67214254


--------------------------------------------------------------------------------------------------------




--------------------------------------- Iteration      1(  18)  ---------------------------------------


    POTLOK:  cpu time      0.9668: real time      0.1836
    SETDIJ:  cpu time      0.0014: real time      0.0014
     EDDAV:  cpu time     20.0350: real time      2.5294
       DOS:  cpu time      0.0005: real time      0.0001
    --------------------------------------------
      LOOP:  cpu time     21.0023: real time      2.7143

 eigenvalue-minimisations  :    20
 total energy-change (2. order) :-0.5257295E-05  (-0.1716009E-07)
 number of electron      10.0000103 magnetization 
 augmentation part        0.6768320 magnetization 

 Free energy of the ion-electron system (eV)
  ---------------------------------------------------
  alpha Z        PSCENC =         0.43695755
  Ewald energy   TEWEN  =       110.76723616
  -Hartree energ DENC   =      -590.50335453
  -exchange      EXHF   =         0.00000000
  -V(xc)+E(xc)   XCENC  =        40.75682273
  PAW double counting   =       943.24430625     -945.76472059
  entropy T*S    EENTRO =         0.00000000
  eigenvalues    EBANDS =      -152.99981527
  atomic energy  EATOM  =       579.39041991
  Solvation  Ediel_sol  =         0.00000000
  ---------------------------------------------------
  free energy    TOTEN  =       -14.67214779 eV

  energy without entropy =      -14.67214779  energy(sigma->0) =      -14.67214779


--------------------------------------------------------------------------------------------------------




 average (electrostatic) potential at core
  the test charge radii are     0.7215  0.6991
  (the norm of the test charge is              1.0000)
       1 -83.6594       2 -61.4293



 E-fermi :  -8.7623     XC(G=0):  -0.6363     alpha+bet : -0.1751

 Fermi energy:        -8.7623479003

 k-point     1 :       0.0000    0.0000    0.0000
  band No.  band energies     occupation 
      1     -29.7803      2.00000
      2     -13.8881      2.00000
      3     -12.0079      2.00000
      4     -12.0071      2.00000
      5      -8.8164      2.00000
      6      -1.5953      0.00000
      7      -1.5929      0.00000
      8      -0.2007      0.00000
      9       1.0604      0.00000


--------------------------------------------------------------------------------------------------------


 soft charge-density along one line, spin component           1
         0         1         2         3         4         5         6         7         8         9
 total charge-density along one line

 pseudopotential strength for first ion, spin component:           1
 14.246 -17.495  -0.107   0.128   0.000   0.136  -0.162  -0.000
-17.495  21.519   0.136  -0.162  -0.000  -0.172   0.205   0.000
 -0.107   0.136 -11.131   0.092  -0.000  13.890  -0.121   0.000
  0.128  -0.162   0.092 -11.164  -0.000  -0.121  13.932   0.000
  0.000  -0.000  -0.000  -0.000 -11.054   0.000   0.000  13.788
  0.136  -0.172  13.890  -0.121   0.000 -17.279   0.160  -0.000
 -0.162   0.205  -0.121  13.932   0.000   0.160 -17.335  -0.000
 -0.000   0.000   0.000   0.000  13.788  -0.000  -0.000 -17.144
 total augmentation occupancy for first ion, spin component:           1
  3.141   0.633   0.508  -0.605   0.000   0.209  -0.249   0.000
  0.633   0.232   0.370  -0.441   0.000   0.103  -0.122   0.000
  0.508   0.370   2.415  -0.466   0.000   0.365  -0.144   0.000
 -0.605  -0.441  -0.466   2.580   0.000  -0.144   0.416   0.000
  0.000   0.000   0.000   0.000   2.024   0.000   0.000   0.244
  0.209   0.103   0.365  -0.144   0.000   0.069  -0.047   0.000
 -0.249  -0.122  -0.144   0.416   0.000  -0.047   0.085   0.000
  0.000   0.000   0.000   0.000   0.244   0.000   0.000   0.029


------------------------ aborting loop because EDIFF is reached ----------------------------------------


    CHARGE:  cpu time      0.6708: real time      0.0928
    FORLOC:  cpu time      0.0499: real time      0.0072
    FORNL :  cpu time      0.0266: real time      0.0080
    STRESS:  cpu time      2.8644: real time      0.4546
    FORCOR:  cpu time      1.0670: real time      0.2131
    FORHAR:  cpu time      0.2780: real time      0.0748
    MIXING:  cpu time      0.0707: real time      0.0222
    OFIELD:  cpu time      0.0000: real time      0.0000

  FORCE on cell =-STRESS in cart. coord.  units (eV):
  Direction    XX          YY          ZZ          XY          YZ          ZX
  --------------------------------------------------------------------------------------
  Alpha Z     0.43696     0.43696     0.43696
  Ewald     -68.53226    62.18161   117.11783    -0.00000  -153.40137    -0.00000
  Hartree   160.87192   205.44876   224.18164     0.00000   -50.49209    -0.00000
  E(xc)     -44.35603   -43.89475   -43.70082     0.00000    -0.54994     0.00000
  Local    -229.09299  -390.75885  -458.69952    -0.00000   187.64581    -0.00000
  n-local   -19.07862   -24.02281   -26.10048    -0.00000     5.88961     0.00000
  augment     6.30061     5.94849     5.80184    -0.00000     0.41851     0.00000
  Kinetic   192.64650   186.48857   183.90241     0.00000     7.33985    -0.00000
  Fock        0.00000     0.00000     0.00000     0.00000     0.00000     0.00000
  -------------------------------------------------------------------------------------
  Total      -0.80391     1.82798     2.93985     0.00000    -3.14962     0.00000
  in kB      -1.28801     2.92874     4.71017     0.00000    -5.04625     0.00000
  external pressure =        2.12 kB  Pullay stress =        0.00 kB


 VOLUME and BASIS-vectors are now :
 -----------------------------------------------------------------------------
  energy-cutoff  :      400.00
  volume of cell :     1000.00
      direct lattice vectors                 reciprocal lattice vectors
    10.000000000  0.000000000  0.000000000     0.100000000  0.000000000  0.000000000
     0.000000000 10.000000000  0.000000000     0.000000000  0.100000000  0.000000000
     0.000000000  0.000000000 10.000000000     0.000000000  0.000000000  0.100000000

  length of vectors
    10.000000000 10.000000000 10.000000000     0.100000000  0.100000000  0.100000000


 FORCES acting on ions
    electron-ion (+dipol)            ewald-force                    non-local-force                 convergence-correction
 -----------------------------------------------------------------------------------------------
   0.335E-12 0.139E+03 -.165E+03   -.333E-16 -.183E+03 0.218E+03   0.000E+00 0.403E+02 -.480E+02   0.206E-13 0.119E-03 -.201E-03
   0.132E-12 -.161E+03 0.192E+03   0.136E-16 0.183E+03 -.218E+03   0.331E-23 -.180E+02 0.215E+02   0.784E-14 -.221E-03 0.260E-03
 -----------------------------------------------------------------------------------------------
   0.467E-12 -.222E+02 0.265E+02   -.197E-16 0.000E+00 0.000E+00   0.331E-23 0.222E+02 -.265E+02   0.285E-13 -.102E-03 0.591E-04


 POSITION                                       TOTAL-FORCE (eV/Angst)
 -----------------------------------------------------------------------------------
      5.00000      5.00000      5.00000         0.000000     -3.727728      4.447147
      5.00000      5.70707      4.15735        -0.000000      3.727728     -4.447147
 -----------------------------------------------------------------------------------
    total drift:                                0.000000     -0.001214     -0.000549


--------------------------------------------------------------------------------------------------------



  FREE ENERGIE OF THE ION-ELECTRON SYSTEM (eV)
  ---------------------------------------------------
  free  energy   TOTEN  =       -14.67214779 eV

  energy  without entropy=      -14.67214779  energy(sigma->0) =      -14.67214779



--------------------------------------------------------------------------------------------------------


    POTLOK:  cpu time      1.0711: real time      0.1981


--------------------------------------------------------------------------------------------------------




--------------------------------------------------------------------------------------------------------


    WAVPRE:  cpu time      1.0568: real time      0.9460
    FEWALD:  cpu time      0.0289: real time      0.0011
    ORTHCH:  cpu time      0.3003: real time      0.0380
     LOOP+:  cpu time    425.1348: real time     55.7600


--------------------------------------- Ionic step        2  -------------------------------------------




--------------------------------------- Iteration      2(   1)  ---------------------------------------


    POTLOK:  cpu time      1.5748: real time      0.2622
    SETDIJ:  cpu time      0.0014: real time      0.0014
     EDDAV:  cpu time     20.1105: real time      2.5320
       DOS:  cpu time      0.0001: real time      0.0001
    CHARGE:  cpu time      0.4626: real time      0.0642
    MIXING:  cpu time      0.0589: real time      0.0155
    --------------------------------------------
      LOOP:  cpu time     22.2085: real time      2.8755

 eigenvalue-minimisations  :    20
 total energy-change (2. order) : 0.1536992E+01  (-0.1357278E+02)
 number of electron      10.0000098 magnetization 
 augmentation part        0.5759159 magnetization 

 Broyden mixing:
  rms(total) = 0.53326E+00    rms(broyden)= 0.53272E+00
  rms(prec ) = 0.66559E+00
  weight for this iteration     100.00

 Free energy of the ion-electron system (eV)
  ---------------------------------------------------
  alpha Z        PSCENC =         0.43695755
  Ewald energy   TEWEN  =        47.52855471
  -Hartree energ DENC   =      -550.23724148
  -exchange      EXHF   =         0.00000000
  -V(xc)+E(xc)   XCENC  =        39.70402648
  PAW double counting   =       943.23640655     -945.75684192
  entropy T*S    EENTRO =         0.00000000
  eigenvalues    EBANDS =      -127.43743263
  atomic energy  EATOM  =       579.39041991
  Solvation  Ediel_sol  =         0.00000000
  ---------------------------------------------------
  free energy    TOTEN  =       -13.13515083 eV

  energy without entropy =      -13.13515083  energy(sigma->0) =      -13.13515083


--------------------------------------------------------------------------------------------------------




--------------------------------------- Iteration      2(   2)  ---------------------------------------


    POTLOK:  cpu time      0.8874: real time      0.1780
    SETDIJ:  cpu time      0.0294: real time      0.0014
     EDDAV:  cpu time     24.0254: real time      3.0359
       DOS:  cpu time      0.0004: real time      0.0001
    CHARGE:  cpu time      0.6943: real time      0.0933
    MIXING:  cpu time      0.0192: real time      0.0123
    --------------------------------------------
      LOOP:  cpu time     25.6560: real time      3.3210

 eigenvalue-minimisations  :    26
 total energy-change (2. order) : 0.6129299E-01  (-0.7052501E+00)
 number of electron      10.0000082 magnetization 
 augmentation part        0.5032906 magnetization 

 Broyden mixing:
  rms(total) = 0.41670E+00    rms(broyden)= 0.41638E+00
  rms(prec ) = 0.50661E+00
  weight for this iteration     100.00

 eigenvalues of (default mixing * dielectric matrix)
  average eigenvalue GAMMA=   0.7341
  0.7341

 Free energy of the ion-electron system (eV)
  ---------------------------------------------------
  alpha Z        PSCENC =         0.43695755
  Ewald energy   TEWEN  =        47.52855471
  -Hartree energ DENC   =      -545.49412735
  -exchange      EXHF   =         0.00000000
  -V(xc)+E(xc)   XCENC  =        39.35576776
  PAW double counting   =       803.37478193     -805.79497623
  entropy T*S    EENTRO =         0.00000000
  eigenvalues    EBANDS =      -131.87123612
  atomic energy  EATOM  =       579.39041991
  Solvation  Ediel_sol  =         0.00000000
  ---------------------------------------------------
  free energy    TOTEN  =       -13.07385783 eV

  energy without entropy =      -13.07385783  energy(sigma->0) =      -13.07385783


--------------------------------------------------------------------------------------------------------




--------------------------------------- Iteration      2(   3)  ---------------------------------------


    POTLOK:  cpu time      0.8861: real time      0.1755
    SETDIJ:  cpu time      0.0014: real time      0.0014
     EDDAV:  cpu time     21.5792: real time      2.7278
       DOS:  cpu time      0.0001: real time      0.0001
    CHARGE:  cpu time      0.6869: real time      0.0934
    MIXING:  cpu time      0.0350: real time      0.0128
    --------------------------------------------
      LOOP:  cpu time     23.1887: real time      3.0110

 eigenvalue-minimisations  :    20
 total energy-change (2. order) : 0.1392477E+00  (-0.1827593E+00)
 number of electron      10.0000095 magnetization 
 augmentation part        0.5658098 magnetization 

 Broyden mixing:
  rms(total) = 0.23359E+00    rms(broyden)= 0.23336E+00
  rms(prec ) = 0.26906E+00
  weight for this iteration     100.00

 eigenvalues of (default mixing * dielectric matrix)
  average eigenvalue GAMMA=   1.1967
  1.8881  0.5053

 Free energy of the ion-electron system (eV)
  ---------------------------------------------------
  alpha Z        PSCENC =         0.43695755
  Ewald energy   TEWEN  =        47.52855471
  -Hartree energ DENC   =      -540.17250479
  -exchange      EXHF   =         0.00000000
  -V(xc)+E(xc)   XCENC  =        39.05882892
  PAW double counting   =       743.15134301     -745.46527499
  entropy T*S    EENTRO =         0.00000000
  eigenvalues    EBANDS =      -136.86293442
  atomic energy  EATOM  =       579.39041991
  Solvation  Ediel_sol  =         0.00000000
  ---------------------------------------------------
  free energy    TOTEN  =       -12.93461010 eV

  energy without entropy =      -12.93461010  energy(sigma->0) =      -12.93461010


--------------------------------------------------------------------------------------------------------




--------------------------------------- Iteration      2(   4)  ---------------------------------------


    POTLOK:  cpu time      0.8981: real time      0.1787
    SETDIJ:  cpu time      0.0014: real time      0.0014
     EDDAV:  cpu time     25.0268: real time      3.1429
       DOS:  cpu time      0.0001: real time      0.0001
    CHARGE:  cpu time      0.6152: real time      0.0836
    MIXING:  cpu time      0.0354: real time      0.0133
    --------------------------------------------
      LOOP:  cpu time     26.5770: real time      3.4200

 eigenvalue-minimisations  :    26
 total energy-change (2. order) : 0.2552735E-01  (-0.2217464E-01)
 number of electron      10.0000094 magnetization 
 augmentation part        0.5615285 magnetization 

 Broyden mixing:
  rms(total) = 0.78156E-01    rms(broyden)= 0.78134E-01
  rms(prec ) = 0.92492E-01
  weight for this iteration     100.00

 eigenvalues of (default mixing * dielectric matrix)
  average eigenvalue GAMMA=   1.2751
  0.5343  1.1441  2.1469

 Free energy of the ion-electron system (eV)
  ---------------------------------------------------
  alpha Z        PSCENC =         0.43695755
  Ewald energy   TEWEN  =        47.52855471
  -Hartree energ DENC   =      -537.87030041
  -exchange      EXHF   =         0.00000000
  -V(xc)+E(xc)   XCENC  =        38.91356173
  PAW double counting   =       646.70519836     -648.95381808
  entropy T*S    EENTRO =         0.00000000
  eigenvalues    EBANDS =      -139.05965653
  atomic energy  EATOM  =       579.39041991
  Solvation  Ediel_sol  =         0.00000000
  ---------------------------------------------------
  free energy    TOTEN  =       -12.90908275 eV

  energy without entropy =      -12.90908275  energy(sigma->0) =      -12.90908275


--------------------------------------------------------------------------------------------------------




--------------------------------------- Iteration      2(   5)  ---------------------------------------


    POTLOK:  cpu time      0.8921: real time      0.1794
    SETDIJ:  cpu time      0.0014: real time      0.0014
     EDDAV:  cpu time     22.2725: real time      2.8030
       DOS:  cpu time      0.0001: real time      0.0002
    CHARGE:  cpu time      0.6930: real time      0.0932
    MIXING:  cpu time      0.0366: real time      0.0139
    --------------------------------------------
      LOOP:  cpu time     23.8958: real time      3.0912

 eigenvalue-minimisations  :    20
 total energy-change (2. order) :-0.8362300E-03  (-0.3921268E-02)
 number of electron      10.0000092 magnetization 
 augmentation part        0.5533411 magnetization 

 Broyden mixing:
  rms(total) = 0.25511E-01    rms(broyden)= 0.25459E-01
  rms(prec ) = 0.31871E-01
  weight for this iteration     100.00

 eigenvalues of (default mixing * dielectric matrix)
  average eigenvalue GAMMA=   1.3534
  2.4171  0.5379  0.9340  1.5244

 Free energy of the ion-electron system (eV)
  ---------------------------------------------------
  alpha Z        PSCENC =         0.43695755
  Ewald energy   TEWEN  =        47.52855471
  -Hartree energ DENC   =      -538.38861236
  -exchange      EXHF   =         0.00000000
  -V(xc)+E(xc)   XCENC  =        38.93960099
  PAW double counting   =       620.05053133     -622.29424857
  entropy T*S    EENTRO =         0.00000000
  eigenvalues    EBANDS =      -138.57312254
  atomic energy  EATOM  =       579.39041991
  Solvation  Ediel_sol  =         0.00000000
  ---------------------------------------------------
  free energy    TOTEN  =       -12.90991898 eV

  energy without entropy =      -12.90991898  energy(sigma->0) =      -12.90991898


--------------------------------------------------------------------------------------------------------




--------------------------------------- Iteration      2(   6)  ---------------------------------------


    POTLOK:  cpu time      0.8995: real time      0.1806
    SETDIJ:  cpu time      0.0014: real time      0.0014
     EDDAV:  cpu time     18.1042: real time      2.2713
       DOS:  cpu time      0.0014: real time      0.0001
    CHARGE:  cpu time      0.6934: real time      0.0933
    MIXING:  cpu time      0.0372: real time      0.0146
    --------------------------------------------
      LOOP:  cpu time     19.7371: real time      2.5612

 eigenvalue-minimisations  :    20
 total energy-change (2. order) :-0.1377034E-02  (-0.3507579E-03)
 number of electron      10.0000092 magnetization 
 augmentation part        0.5550727 magnetization 

 Broyden mixing:
  rms(total) = 0.48871E-02    rms(broyden)= 0.48835E-02
  rms(prec ) = 0.10600E-01
  weight for this iteration     100.00

 eigenvalues of (default mixing * dielectric matrix)
  average eigenvalue GAMMA=   1.3542
  2.4686  0.5371  1.6577  1.0538  1.0538

 Free energy of the ion-electron system (eV)
  ---------------------------------------------------
  alpha Z        PSCENC =         0.43695755
  Ewald energy   TEWEN  =        47.52855471
  -Hartree energ DENC   =      -538.51413049
  -exchange      EXHF   =         0.00000000
  -V(xc)+E(xc)   XCENC  =        38.94601947
  PAW double counting   =       607.99621574     -610.23836906
  entropy T*S    EENTRO =         0.00000000
  eigenvalues    EBANDS =      -138.45696385
  atomic energy  EATOM  =       579.39041991
  Solvation  Ediel_sol  =         0.00000000
  ---------------------------------------------------
  free energy    TOTEN  =       -12.91129602 eV

  energy without entropy =      -12.91129602  energy(sigma->0) =      -12.91129602


--------------------------------------------------------------------------------------------------------




--------------------------------------- Iteration      2(   7)  ---------------------------------------


    POTLOK:  cpu time      0.8981: real time      0.1808
    SETDIJ:  cpu time      0.0309: real time      0.0018
     EDDAV:  cpu time     21.7008: real time      2.7321
       DOS:  cpu time      0.0020: real time      0.0001
    CHARGE:  cpu time      0.6892: real time      0.0931
    MIXING:  cpu time      0.0377: real time      0.0153
    --------------------------------------------
      LOOP:  cpu time     23.3586: real time      3.0233

 eigenvalue-minimisations  :    20
 total energy-change (2. order) :-0.7800318E-03  (-0.2869049E-04)
 number of electron      10.0000092 magnetization 
 augmentation part        0.5552966 magnetization 

 Broyden mixing:
  rms(total) = 0.23514E-02    rms(broyden)= 0.23498E-02
  rms(prec ) = 0.76391E-02
  weight for this iteration     100.00

 eigenvalues of (default mixing * dielectric matrix)
  average eigenvalue GAMMA=   1.4164
  2.5537  0.5374  1.8957  1.5654  0.9732  0.9732

 Free energy of the ion-electron system (eV)
  ---------------------------------------------------
  alpha Z        PSCENC =         0.43695755
  Ewald energy   TEWEN  =        47.52855471
  -Hartree energ DENC   =      -538.50924097
  -exchange      EXHF   =         0.00000000
  -V(xc)+E(xc)   XCENC  =        38.94464637
  PAW double counting   =       606.44931813     -608.69323812
  entropy T*S    EENTRO =         0.00000000
  eigenvalues    EBANDS =      -138.45949363
  atomic energy  EATOM  =       579.39041991
  Solvation  Ediel_sol  =         0.00000000
  ---------------------------------------------------
  free energy    TOTEN  =       -12.91207605 eV

  energy without entropy =      -12.91207605  energy(sigma->0) =      -12.91207605


--------------------------------------------------------------------------------------------------------




--------------------------------------- Iteration      2(   8)  ---------------------------------------


    POTLOK:  cpu time      0.9023: real time      0.1822
    SETDIJ:  cpu time      0.0294: real time      0.0014
     EDDAV:  cpu time     18.0575: real time      2.2823
       DOS:  cpu time      0.0040: real time      0.0003
    CHARGE:  cpu time      0.5917: real time      0.0810
    MIXING:  cpu time      0.0399: real time      0.0160
    --------------------------------------------
      LOOP:  cpu time     19.6248: real time      2.5632

 eigenvalue-minimisations  :    19
 total energy-change (2. order) :-0.1480822E-02  (-0.3365916E-04)
 number of electron      10.0000092 magnetization 
 augmentation part        0.5552599 magnetization 

 Broyden mixing:
  rms(total) = 0.15955E-02    rms(broyden)= 0.15952E-02
  rms(prec ) = 0.39389E-02
  weight for this iteration     100.00

 eigenvalues of (default mixing * dielectric matrix)
  average eigenvalue GAMMA=   1.6036
  3.3087  2.4921  0.5373  0.9796  0.9796  1.4641  1.4641

 Free energy of the ion-electron system (eV)
  ---------------------------------------------------
  alpha Z        PSCENC =         0.43695755
  Ewald energy   TEWEN  =        47.52855471
  -Hartree energ DENC   =      -538.42454598
  -exchange      EXHF   =         0.00000000
  -V(xc)+E(xc)   XCENC  =        38.93839694
  PAW double counting   =       606.12178820     -608.36813141
  entropy T*S    EENTRO =         0.00000000
  eigenvalues    EBANDS =      -138.53699679
  atomic energy  EATOM  =       579.39041991
  Solvation  Ediel_sol  =         0.00000000
  ---------------------------------------------------
  free energy    TOTEN  =       -12.91355687 eV

  energy without entropy =      -12.91355687  energy(sigma->0) =      -12.91355687


--------------------------------------------------------------------------------------------------------




[...]
    total drift:                                0.000000     -0.001641      0.001252


--------------------------------------------------------------------------------------------------------



  FREE ENERGIE OF THE ION-ELECTRON SYSTEM (eV)
  ---------------------------------------------------
  free  energy   TOTEN  =       -14.79084262 eV

  energy  without entropy=      -14.79084262  energy(sigma->0) =      -14.79084262

 d Force = 0.1454266E+01[ 0.125E+00, 0.278E+01]  d Energy = 0.1875983E+01-0.422E+00
 d Force =-0.5092065E+02[-0.603E+02,-0.416E+02]  d Ewald  =-0.5006685E+02-0.854E+00


--------------------------------------------------------------------------------------------------------


    POTLOK:  cpu time      1.0656: real time      0.1988


--------------------------------------------------------------------------------------------------------




--------------------------------------------------------------------------------------------------------


    WAVPRE:  cpu time      0.2305: real time      0.1483
    FEWALD:  cpu time      0.0012: real time      0.0011
    ORTHCH:  cpu time      0.3155: real time      0.0372
     LOOP+:  cpu time    322.2182: real time     42.1969


--------------------------------------- Ionic step        4  -------------------------------------------




--------------------------------------- Iteration      4(   1)  ---------------------------------------


    POTLOK:  cpu time      1.5812: real time      0.2639
    SETDIJ:  cpu time      0.0017: real time      0.0017
     EDDAV:  cpu time     19.6883: real time      2.4672
       DOS:  cpu time      0.0001: real time      0.0001
    CHARGE:  cpu time      0.6862: real time      0.0933
    MIXING:  cpu time      0.0197: real time      0.0120
    --------------------------------------------
      LOOP:  cpu time     21.9773: real time      2.8382

 eigenvalue-minimisations  :    18
 total energy-change (2. order) :-0.1390488E-02  (-0.4305215E-02)
 number of electron      10.0000101 magnetization 
 augmentation part        0.6518398 magnetization 

 Broyden mixing:
  rms(total) = 0.95432E-02    rms(broyden)= 0.95165E-02
  rms(prec ) = 0.11074E-01
  weight for this iteration     100.00

 Free energy of the ion-electron system (eV)
  ---------------------------------------------------
  alpha Z        PSCENC =         0.43695755
  Ewald energy   TEWEN  =        98.67223412
  -Hartree energ DENC   =      -580.65093735
  -exchange      EXHF   =         0.00000000
  -V(xc)+E(xc)   XCENC  =        40.38720864
  PAW double counting   =       854.93296202     -857.37613963
  entropy T*S    EENTRO =         0.00000000
  eigenvalues    EBANDS =      -150.58493555
  atomic energy  EATOM  =       579.39041991
  Solvation  Ediel_sol  =         0.00000000
  ---------------------------------------------------
  free energy    TOTEN  =       -14.79223029 eV

  energy without entropy =      -14.79223029  energy(sigma->0) =      -14.79223029


--------------------------------------------------------------------------------------------------------




--------------------------------------- Iteration      4(   2)  ---------------------------------------


    POTLOK:  cpu time      1.0035: real time      0.1883
    SETDIJ:  cpu time      0.0292: real time      0.0014
     EDDAV:  cpu time     18.9756: real time      2.3893
       DOS:  cpu time      0.0013: real time      0.0001
    CHARGE:  cpu time      0.4658: real time      0.0656
    MIXING:  cpu time      0.0519: real time      0.0137
    --------------------------------------------
      LOOP:  cpu time     20.5274: real time      2.6584

 eigenvalue-minimisations  :    18
 total energy-change (2. order) : 0.8747782E-04  (-0.7160632E-04)
 number of electron      10.0000101 magnetization 
 augmentation part        0.6522733 magnetization 

 Broyden mixing:
  rms(total) = 0.57027E-02    rms(broyden)= 0.56981E-02
  rms(prec ) = 0.63554E-02
  weight for this iteration     100.00

 eigenvalues of (default mixing * dielectric matrix)
  average eigenvalue GAMMA=   1.8976
  1.8976

 Free energy of the ion-electron system (eV)
  ---------------------------------------------------
  alpha Z        PSCENC =         0.43695755
  Ewald energy   TEWEN  =        98.67223412
  -Hartree energ DENC   =      -580.77517886
  -exchange      EXHF   =         0.00000000
  -V(xc)+E(xc)   XCENC  =        40.39465485
  PAW double counting   =       857.71695481     -860.16219757
  entropy T*S    EENTRO =         0.00000000
  eigenvalues    EBANDS =      -150.46598763
  atomic energy  EATOM  =       579.39041991
  Solvation  Ediel_sol  =         0.00000000
  ---------------------------------------------------
  free energy    TOTEN  =       -14.79214282 eV

  energy without entropy =      -14.79214282  energy(sigma->0) =      -14.79214282


--------------------------------------------------------------------------------------------------------




--------------------------------------- Iteration      4(   3)  ---------------------------------------


    POTLOK:  cpu time      1.0074: real time      0.1902
    SETDIJ:  cpu time      0.0293: real time      0.0014
     EDDAV:  cpu time     19.8447: real time      2.5085
       DOS:  cpu time      0.0013: real time      0.0002
    CHARGE:  cpu time      0.6951: real time      0.0931
    MIXING:  cpu time      0.0309: real time      0.0129
    --------------------------------------------
      LOOP:  cpu time     21.6087: real time      2.8062

 eigenvalue-minimisations  :    19
 total energy-change (2. order) : 0.1919829E-04  (-0.2045289E-04)
 number of electron      10.0000101 magnetization 
 augmentation part        0.6518548 magnetization 

 Broyden mixing:
  rms(total) = 0.19927E-02    rms(broyden)= 0.19903E-02
  rms(prec ) = 0.22576E-02
  weight for this iteration     100.00

 eigenvalues of (default mixing * dielectric matrix)
  average eigenvalue GAMMA=   1.4602
  0.8060  2.1143

 Free energy of the ion-electron system (eV)
  ---------------------------------------------------
  alpha Z        PSCENC =         0.43695755
  Ewald energy   TEWEN  =        98.67223412
  -Hartree energ DENC   =      -580.90877298
  -exchange      EXHF   =         0.00000000
  -V(xc)+E(xc)   XCENC  =        40.40225024
  PAW double counting   =       860.69313291     -863.14206161
  entropy T*S    EENTRO =         0.00000000
  eigenvalues    EBANDS =      -150.33628375
  atomic energy  EATOM  =       579.39041991
  Solvation  Ediel_sol  =         0.00000000
  ---------------------------------------------------
  free energy    TOTEN  =       -14.79212362 eV

  energy without entropy =      -14.79212362  energy(sigma->0) =      -14.79212362


--------------------------------------------------------------------------------------------------------




--------------------------------------- Iteration      4(   4)  ---------------------------------------


    POTLOK:  cpu time      1.0227: real time      0.1891
    SETDIJ:  cpu time      0.0013: real time      0.0013
     EDDAV:  cpu time     18.9532: real time      2.3810
       DOS:  cpu time      0.0006: real time      0.0001
    CHARGE:  cpu time      0.6940: real time      0.0931
    MIXING:  cpu time      0.0361: real time      0.0134
    --------------------------------------------
      LOOP:  cpu time     20.7080: real time      2.6781

 eigenvalue-minimisations  :    18
 total energy-change (2. order) : 0.1922799E-05  (-0.1735412E-05)
 number of electron      10.0000101 magnetization 
 augmentation part        0.6519878 magnetization 

 Broyden mixing:
  rms(total) = 0.81377E-03    rms(broyden)= 0.81359E-03
  rms(prec ) = 0.92701E-03
  weight for this iteration     100.00

 eigenvalues of (default mixing * dielectric matrix)
  average eigenvalue GAMMA=   1.4845
  2.2441  1.4363  0.7732

 Free energy of the ion-electron system (eV)
  ---------------------------------------------------
  alpha Z        PSCENC =         0.43695755
  Ewald energy   TEWEN  =        98.67223412
  -Hartree energ DENC   =      -580.89839125
  -exchange      EXHF   =         0.00000000
  -V(xc)+E(xc)   XCENC  =        40.40171265
  PAW double counting   =       861.43404109     -863.88309749
  entropy T*S    EENTRO =         0.00000000
  eigenvalues    EBANDS =      -150.34599827
  atomic energy  EATOM  =       579.39041991
  Solvation  Ediel_sol  =         0.00000000
  ---------------------------------------------------
  free energy    TOTEN  =       -14.79212169 eV

  energy without entropy =      -14.79212169  energy(sigma->0) =      -14.79212169


--------------------------------------------------------------------------------------------------------




--------------------------------------- Iteration      4(   5)  ---------------------------------------


    POTLOK:  cpu time      0.9961: real time      0.1903
    SETDIJ:  cpu time      0.0293: real time      0.0014
     EDDAV:  cpu time     22.0977: real time      2.7931
       DOS:  cpu time      0.0015: real time      0.0001
    CHARGE:  cpu time      0.6975: real time      0.0934
    MIXING:  cpu time      0.0368: real time      0.0140
    --------------------------------------------
      LOOP:  cpu time     23.8589: real time      3.0922

 eigenvalue-minimisations  :    20
 total energy-change (2. order) :-0.7285566E-06  (-0.1756983E-06)
 number of electron      10.0000101 magnetization 
 augmentation part        0.6520021 magnetization 

 Broyden mixing:
  rms(total) = 0.23629E-03    rms(broyden)= 0.23617E-03
  rms(prec ) = 0.30886E-03
  weight for this iteration     100.00

 eigenvalues of (default mixing * dielectric matrix)
  average eigenvalue GAMMA=   1.5430
  2.5903  1.6943  1.1047  0.7829

 Free energy of the ion-electron system (eV)
  ---------------------------------------------------
  alpha Z        PSCENC =         0.43695755
  Ewald energy   TEWEN  =        98.67223412
  -Hartree energ DENC   =      -580.88601124
  -exchange      EXHF   =         0.00000000
  -V(xc)+E(xc)   XCENC  =        40.40102886
  PAW double counting   =       861.84160135     -864.29059984
  entropy T*S    EENTRO =         0.00000000
  eigenvalues    EBANDS =      -150.35775312
  atomic energy  EATOM  =       579.39041991
  Solvation  Ediel_sol  =         0.00000000
  ---------------------------------------------------
  free energy    TOTEN  =       -14.79212242 eV

  energy without entropy =      -14.79212242  energy(sigma->0) =      -14.79212242


--------------------------------------------------------------------------------------------------------




--------------------------------------- Iteration      4(   6)  ---------------------------------------


    POTLOK:  cpu time      0.9913: real time      0.1897
    SETDIJ:  cpu time      0.0294: real time      0.0014
     EDDAV:  cpu time     20.3539: real time      2.5558
       DOS:  cpu time      0.0001: real time      0.0001
    --------------------------------------------
      LOOP:  cpu time     21.3746: real time      2.7469

 eigenvalue-minimisations  :    18
 total energy-change (2. order) :-0.1081857E-05  (-0.2534460E-07)
 number of electron      10.0000101 magnetization 
 augmentation part        0.6520021 magnetization 

 Free energy of the ion-electron system (eV)
  ---------------------------------------------------
  alpha Z        PSCENC =         0.43695755
  Ewald energy   TEWEN  =        98.67223412
  -Hartree energ DENC   =      -580.88542010
  -exchange      EXHF   =         0.00000000
  -V(xc)+E(xc)   XCENC  =        40.40100898
  PAW double counting   =       862.02202777     -864.47104995
  entropy T*S    EENTRO =         0.00000000
  eigenvalues    EBANDS =      -150.35830178
  atomic energy  EATOM  =       579.39041991
  Solvation  Ediel_sol  =         0.00000000
  ---------------------------------------------------
  free energy    TOTEN  =       -14.79212350 eV

  energy without entropy =      -14.79212350  energy(sigma->0) =      -14.79212350


--------------------------------------------------------------------------------------------------------




 average (electrostatic) potential at core
  the test charge radii are     0.7215  0.6991
  (the norm of the test charge is              1.0000)
       1 -83.4462       2 -61.5939



 E-fermi :  -8.8815     XC(G=0):  -0.6690     alpha+bet : -0.1751

 Fermi energy:        -8.8814582035

 k-point     1 :       0.0000    0.0000    0.0000
  band No.  band energies     occupation 
      1     -29.1212      2.00000
      2     -13.9206      2.00000
      3     -11.6095      2.00000
      4     -11.6088      2.00000
      5      -8.9190      2.00000
      6      -2.0267      0.00000
      7      -2.0253      0.00000
      8      -0.2298      0.00000
      9       1.0648      0.00000


--------------------------------------------------------------------------------------------------------


 soft charge-density along one line, spin component           1
         0         1         2         3         4         5         6         7         8         9
 total charge-density along one line

 pseudopotential strength for first ion, spin component:           1
 14.217 -17.459  -0.094   0.112   0.000   0.118  -0.141  -0.000
-17.459  21.473   0.119  -0.142  -0.000  -0.150   0.179   0.000
 -0.094   0.119 -11.093   0.071  -0.000  13.840  -0.093   0.000
  0.112  -0.142   0.071 -11.118  -0.000  -0.093  13.873   0.000
  0.000  -0.000  -0.000  -0.000 -11.034   0.000   0.000  13.762
  0.118  -0.150  13.840  -0.093   0.000 -17.213   0.123  -0.000
 -0.141   0.179  -0.093  13.873   0.000   0.123 -17.257  -0.000
 -0.000   0.000   0.000   0.000  13.762  -0.000  -0.000 -17.111
 total augmentation occupancy for first ion, spin component:           1
  3.024   0.575   0.460  -0.548   0.000   0.195  -0.232   0.000
  0.575   0.211   0.352  -0.419   0.000   0.097  -0.116   0.000
  0.460   0.352   2.353  -0.452   0.000   0.351  -0.149   0.000
 -0.548  -0.419  -0.452   2.512   0.000  -0.149   0.404   0.000
  0.000   0.000   0.000   0.000   1.973   0.000   0.000   0.226
  0.195   0.097   0.351  -0.149   0.000   0.066  -0.047   0.000
 -0.232  -0.116  -0.149   0.404   0.000  -0.047   0.082   0.000
  0.000   0.000   0.000   0.000   0.226   0.000   0.000   0.026


------------------------ aborting loop because EDIFF is reached ----------------------------------------


    CHARGE:  cpu time      0.6846: real time      0.0930
    FORLOC:  cpu time      0.0473: real time      0.0072
    FORNL :  cpu time      0.0291: real time      0.0080
    STRESS:  cpu time      2.7753: real time      0.4145
    FORCOR:  cpu time      1.0697: real time      0.2134
    FORHAR:  cpu time      0.2749: real time      0.0751
    MIXING:  cpu time      0.0747: real time      0.0151
    OFIELD:  cpu time      0.0000: real time      0.0000

  FORCE on cell =-STRESS in cart. coord.  units (eV):
  Direction    XX          YY          ZZ          XY          YZ          ZX
  --------------------------------------------------------------------------------------
  Alpha Z     0.43696     0.43696     0.43696
  Ewald     -68.56716    57.18670   110.05262    -0.00000  -147.30321     0.00000
  Hartree   157.21464   202.34971   221.32238     0.00000   -50.99340    -0.00000
  E(xc)     -43.98016   -43.52217   -43.32957     0.00000    -0.54603    -0.00000
  Local    -224.38821  -384.42001  -451.69259    -0.00000   185.34831    -0.00000
  n-local   -18.46961   -23.14435   -25.10918     0.00000     5.56911    -0.00000
  augment     6.22112     6.02543     5.94284     0.00000     0.23301     0.00000
  Kinetic   190.72370   184.24478   181.52217     0.00000     7.72337     0.00000
  Fock        0.00000     0.00000     0.00000     0.00000     0.00000     0.00000
  -------------------------------------------------------------------------------------
  Total      -0.80872    -0.84295    -0.85438     0.00000     0.03115     0.00000
  in kB      -1.29571    -1.35056    -1.36887     0.00000     0.04990     0.00000
  external pressure =       -1.34 kB  Pullay stress =        0.00 kB


 VOLUME and BASIS-vectors are now :
 -----------------------------------------------------------------------------
  energy-cutoff  :      400.00
  volume of cell :     1000.00
      direct lattice vectors                 reciprocal lattice vectors
    10.000000000  0.000000000  0.000000000     0.100000000  0.000000000  0.000000000
     0.000000000 10.000000000  0.000000000     0.000000000  0.100000000  0.000000000
     0.000000000  0.000000000 10.000000000     0.000000000  0.000000000  0.100000000

  length of vectors
    10.000000000 10.000000000 10.000000000     0.100000000  0.100000000  0.100000000


 FORCES acting on ions
    electron-ion (+dipol)            ewald-force                    non-local-force                 convergence-correction
 -----------------------------------------------------------------------------------------------
   0.332E-12 0.130E+03 -.155E+03   0.226E-16 -.169E+03 0.201E+03   0.000E+00 0.382E+02 -.455E+02   0.305E-13 -.230E-02 0.273E-02
   0.116E-12 -.151E+03 0.179E+03   -.431E-16 0.169E+03 -.201E+03   -.121E-26 -.181E+02 0.215E+02   0.116E-13 -.153E-02 0.182E-02
 -----------------------------------------------------------------------------------------------
   0.448E-12 -.201E+02 0.240E+02   -.205E-16 0.000E+00 0.000E+00   -.121E-26 0.201E+02 -.240E+02   0.422E-13 -.383E-02 0.455E-02


 POSITION                                       TOTAL-FORCE (eV/Angst)
 -----------------------------------------------------------------------------------
      5.00000      5.00000      5.00000         0.000000      0.054037     -0.060342
      5.00000      5.73553      4.12339         0.000000     -0.054037      0.060342
 -----------------------------------------------------------------------------------
    total drift:                                0.000000     -0.001702      0.001260


--------------------------------------------------------------------------------------------------------



  FREE ENERGIE OF THE ION-ELECTRON SYSTEM (eV)
  ---------------------------------------------------
  free  energy   TOTEN  =       -14.79212350 eV

  energy  without entropy=      -14.79212350  energy(sigma->0) =      -14.79212350

 d Force = 0.1278515E-02[ 0.334E-03, 0.222E-02]  d Energy = 0.1280881E-02-0.237E-05
 d Force =-0.1076841E+01[-0.108E+01,-0.107E+01]  d Ewald  =-0.1076834E+01-0.698E-05


--------------------------------------------------------------------------------------------------------


    POTLOK:  cpu time      1.0545: real time      0.1982


--------------------------------------------------------------------------------------------------------




--------------------------------------------------------------------------------------------------------


  
 reached required accuracy - stopping structural energy minimisation
     LOOP+:  cpu time    136.0730: real time     17.8471
    4ORBIT:  cpu time      0.0000: real time      0.0000

 total amount of memory used by VASP MPI-rank0   129305. kBytes
=======================================================================

   base      :      30000. kBytes
   nonl-proj :       1443. kBytes
   fftplans  :      34720. kBytes
   grid      :      61840. kBytes
   one-center:          3. kBytes
   wavefun   :       1299. kBytes

  
  
 General timing and accounting informations for this job:
 ========================================================
  
                  Total CPU time used (sec):     1210.329
                            User time (sec):      888.527
                          System time (sec):      321.802
                         Elapsed time (sec):      161.114
  
                   Maximum memory used (kb):      225328.
                   Average memory used (kb):          N/A
  
                          Minor page faults:       153321
                          Major page faults:            5
                 Voluntary context switches:       252859
