CO                                      
           1
    10.000000    0.000000    0.000000
     0.000000   10.000000    0.000000
     0.000000    0.000000   10.000000
   O    C 
     1     1
Direct configuration=     1
   0.50000000  0.50000000  0.50000000
   0.50000000  0.57070660  0.41573510
Direct configuration=     2
   0.50000000  0.50000000  0.50000000
   0.50000000  0.58869015  0.39428088
Direct configuration=     3
   0.50000000  0.50000000  0.50000000
   0.50000000  0.57381796  0.41202327
Direct configuration=     4
   0.50000000  0.50000000  0.50000000
   0.50000000  0.57355326  0.41233906
